<VTKFile type="RectilinearGrid" version="0.1" format="ascii">
 <RectilinearGrid WholeExtent="1 120 1 18 1 18">
  <Piece Extent="1 120 1 18 1 18">
   <Coordinates>
    <DataArray type="Float32" Name="X_COORDINATES" NumberOfComponents="1" format="ascii">
  -3.06248199E-03  -3.00875423E-03  -2.95502646E-03  -2.90129869E-03  -2.84757116E-03  -2.79384339E-03  -2.74011563E-03  -2.68638786E-03  -2.63266009E-03  -2.57893233E-03  -2.52520456E-03  -2.47147679E-03  -2.41774903E-03  -2.36402126E-03  -2.31029349E-03  -2.25656573E-03  -2.20283796E-03  -2.14911019E-03  -2.09538243E-03  -2.04165466E-03  -1.98792689E-03  -1.93419924E-03  -1.88047148E-03  -1.82674371E-03  -1.77301595E-03  -1.71928818E-03  -1.66556041E-03  -1.61183265E-03  -1.55810488E-03  -1.50437711E-03  -1.45064935E-03  -1.39692170E-03  -1.34319393E-03  -1.28946616E-03  -1.23573840E-03  -1.18201063E-03  -1.12828286E-03  -1.07455510E-03  -1.02082733E-03  -9.67099622E-04  -9.13371856E-04  -8.59644089E-04  -8.05916323E-04  -7.52188556E-04  -6.98460848E-04  -6.44733082E-04  -5.91005315E-04  -5.37277549E-04  -4.83549811E-04  -4.29822045E-04  -3.76094278E-04  -3.22366541E-04  -2.68638774E-04  -2.14911022E-04  -1.61183270E-04  -1.07455511E-04  -5.37277556E-05   0.00000000       5.37277556E-05   1.07455511E-04   1.61183270E-04   2.14911022E-04   2.68638774E-04   3.22366541E-04   3.76094278E-04   4.29822045E-04   4.83549811E-04   5.37277549E-04   5.91005315E-04   6.44733082E-04   6.98460848E-04   7.52188556E-04   8.05916323E-04   8.59644089E-04   9.13371856E-04   9.67099622E-04   1.02082733E-03   1.07455510E-03   1.12828286E-03   1.18201063E-03   1.23573840E-03   1.28946616E-03   1.34319393E-03   1.39692170E-03   1.45064935E-03   1.50437711E-03   1.55810488E-03   1.61183265E-03   1.66556041E-03   1.71928818E-03   1.77301595E-03   1.82674371E-03   1.88047148E-03   1.93419924E-03   1.98792689E-03   2.04165466E-03   2.09538243E-03   2.14911019E-03   2.20283796E-03   2.25656573E-03   2.31029349E-03   2.36402126E-03   2.41774903E-03   2.47147679E-03   2.52520456E-03   2.57893233E-03   2.63266009E-03   2.68638786E-03   2.74011563E-03   2.79384339E-03   2.84757116E-03   2.90129869E-03   2.95502646E-03   3.00875423E-03   3.06248199E-03   3.11620976E-03   3.16993752E-03   3.22366529E-03   3.27739306E-03   3.33112082E-03
    </DataArray>
    <DataArray type="Float32" Name="Y_COORDINATES" NumberOfComponents="1" format="ascii">
  -4.56685928E-04  -4.02958161E-04  -3.49230424E-04  -2.95502658E-04  -2.41774906E-04  -1.88047139E-04  -1.34319387E-04  -8.05916352E-05  -2.68638778E-05   2.68638778E-05   8.05916352E-05   1.34319387E-04   1.88047139E-04   2.41774906E-04   2.95502658E-04   3.49230424E-04   4.02958161E-04   4.56685928E-04
    </DataArray>
    <DataArray type="Float32" Name="Z_COORDINATES" NumberOfComponents="1" format="ascii">
  -4.56685928E-04  -4.02958161E-04  -3.49230424E-04  -2.95502658E-04  -2.41774906E-04  -1.88047139E-04  -1.34319387E-04  -8.05916352E-05  -2.68638778E-05   2.68638778E-05   8.05916352E-05   1.34319387E-04   1.88047139E-04   2.41774906E-04   2.95502658E-04   3.49230424E-04   4.02958161E-04   4.56685928E-04
    </DataArray>
   </Coordinates>
   <PointData>
         <DataArray type="Float32" Name="Intensity" NumberOfComponents="1" format="ascii">
   1.35756481       1.48148751       1.63498068       1.82015777       2.03973937       2.30051064       2.62002087       3.02222705       3.50013542       3.99605441       4.43959427       4.79108572       5.05226231       5.24670506       5.39550161       5.51076317       5.60106802       5.67321348       5.73103666       5.77706575       5.81383848       5.84303951       5.86537647       5.88141775       5.89156914       5.89590836       5.89456892       5.88784647       5.87600851       5.85932732       5.83818579       5.81299210       5.78414536       5.75208426       5.71727467       5.68016720       5.64119911       5.60081291       5.55943489       5.51747656       5.47533321       5.43338728       5.39199924       5.35151243       5.31225395       5.27453136       5.23862982       5.20481920       5.17334509       5.14443350       5.11828899       5.09509277       5.07500410       5.05815601       5.04466248       5.03460741       5.02805376       5.02503586       5.02556610       5.02962875       5.03718424       5.04816580       5.06248331       5.08002138       5.10064077       5.12417698       5.15044546       5.17923594       5.21032000       5.24344587       5.27834082       5.31471491       5.35226107       5.39064789       5.42953205       5.46855116       5.50732660       5.54546452       5.58255672       5.61818123       5.65190697       5.68329811       5.71191692       5.73730659       5.75904083       5.77673483       5.78998947       5.79844141       5.80183125       5.79990578       5.79238892       5.77916765       5.76018238       5.73505068       5.70323849       5.66407394       5.61592579       5.55633450       5.48286390       5.39176702       5.27638721       5.12835789       4.93584442       4.67819834       4.33245659       3.89722443       3.41166425       2.94476819       2.55264521       2.24154782       1.98768950       1.77387202       1.59353364       1.44411170       1.32363522       1.22934341       1.15749395       1.10386097       1.06434691       1.03540301       1.42455745       1.57161117       1.75213504       1.96692812       2.21762443       2.51109624       2.87399983       3.36549234       3.99424148       4.65278244       5.21066189       5.60870123       5.87121248       6.05532932       6.19594193       6.30372000       6.38715887       6.45402336       6.50630426       6.54606390       6.57760382       6.60267544       6.62108326       6.63346338       6.64015198       6.64078712       6.63532114       6.62410116       6.60739565       6.58532810       6.55832148       6.52692318       6.49148464       6.45249224       6.41054821       6.36612034       6.31969118       6.27179289       6.22289371       6.17345142       6.12392950       6.07474613       6.02630997       5.97901440       5.93322039       5.88927698       5.84751081       5.80821562       5.77167845       5.73815012       5.70785952       5.68101597       5.65779638       5.63835096       5.62281036       5.61126852       5.60379314       5.60042858       5.60118294       5.60604191       5.61495781       5.62785482       5.64463234       5.66515589       5.68926811       5.71678638       5.74749517       5.78115892       5.81752348       5.85629559       5.89717436       5.93983173       5.98391485       6.02905941       6.07487059       6.12094021       6.16685104       6.21214294       6.25636196       6.29904366       6.33966875       6.37775993       6.41285849       6.44437599       6.47184181       6.49491692       6.51306629       6.52588511       6.53326845       6.53495502       6.53061867       6.52033520       6.50447702       6.48272133       6.45447922       6.41996956       6.37748671       6.32283163       6.25406981       6.16929102       6.06082487       5.92041111       5.73765612       5.47824240       5.08629084       4.53854227       3.89363551       3.27960801       2.80099487       2.44808745       2.16248369       1.91819715       1.70867550       1.53251052       1.38910520       1.27642334       1.19067967       1.12707269       1.08067524       1.04709363       1.50317395       1.67798674       1.89042389       2.13922524       2.42445993       2.75102901       3.13159633       3.66213083       4.44370890       5.30367756       5.98375225       6.39279318       6.60440111       6.74595690       6.86545515       6.95774364       7.02953672       7.08781481       7.12923193       7.15694761       7.17975664       7.19859695       7.21088791       7.21775770       7.21992159       7.21596098       7.20537233       7.18915606       7.16738749       7.13964176       7.10673666       7.06927967       7.02743769       6.98187208       6.93323898       6.88202620       6.82875633       6.77401209       6.71832609       6.66216803       6.60606003       6.55045748       6.49579096       6.44250345       6.39097404       6.34159517       6.29472017       6.25065327       6.20973158       6.17221832       6.13835096       6.10838509       6.08249331       6.06084251       6.04358912       6.03081560       6.02260828       6.01901960       6.02004004       6.02567101       6.03585386       6.05049229       6.06949806       6.09270573       6.11993837       6.15101671       6.18568230       6.22368336       6.26475382       6.30855131       6.35476017       6.40302706       6.45295477       6.50415802       6.55619574       6.60863638       6.66102457       6.71284246       6.76362658       6.81284809       6.85993338       6.90437651       6.94569302       6.98323727       7.01638222       7.04495859       7.06836700       7.08583069       7.09778357       7.10414171       7.10393906       7.09771061       7.08686829       7.07070589       7.04814386       7.02178669       6.99070835       6.94619942       6.88536453       6.81165934       6.71799421       6.59789276       6.45664549       6.24670124       5.84304810       5.17466688       4.33237267       3.56976438       3.05428839       2.68485260       2.36709929       2.08884859       1.84560168       1.63765073       1.46654642       1.33134687       1.22849154       1.15269232       1.09805822       1.05910325       1.59947622       1.80960906       2.06275082       2.35663462       2.69027376       3.07675099       3.47146940       3.83216119       4.71500397       5.81050205       6.64069414       7.04294634       7.08540535       7.13332891       7.23284006       7.30081177       7.36468315       7.40887547       7.42102861       7.43183279       7.43993521       7.44641924       7.45267248       7.44798231       7.44338846       7.43622875       7.41585732       7.39491606       7.36962891       7.33390522       7.29689407       7.25452089       7.20595312       7.15634632       7.10229826       7.04536963       6.98790932       6.92790222       6.86725569       6.80696344       6.74610281       6.68617773       6.62770224       6.57031155       6.51509905       6.46245050       6.41221666       6.36519146       6.32169008       6.28164101       6.24564075       6.21390676       6.18638086       6.16349697       6.14537811       6.13193083       6.12343454       6.11993265       6.12125063       6.12754250       6.13877153       6.15464258       6.17522097       6.20039415       6.22971535       6.26321030       6.30067921       6.34151459       6.38574696       6.43309212       6.48274469       6.53480577       6.58894062       6.64404058       6.70041609       6.75762892       6.81415892       6.87085390       6.92685175       6.98019409       7.03281736       7.08258104       7.12779903       7.17179966       7.20975161       7.24221182       7.27325630       7.29412127       7.31048107       7.32624722       7.32907867       7.32912350       7.32945442       7.31909227       7.30816460       7.29607201       7.28148699       7.26506615       7.21764898       7.15140724       7.08115864       6.98060560       6.93102455       6.88637972       6.48767138       5.67053652       4.59805775       3.73922181       3.39103079       3.00809216       2.63183022       2.30565476       2.01739168       1.76864338       1.56209481       1.39773154       1.27271903       1.18143153       1.11667955       1.07140005       1.72313201       1.98142898       2.28811240       2.64406109       3.03478551       3.47154975       4.11057568       4.61538363       5.85384464       6.58810568       7.71909142       8.63563919       8.73955154       8.74841690       8.85624790       8.97975254       9.12148094       9.17101669       9.14706039       9.16943359       9.18464088       9.17538166       9.18689728       9.17636204       9.16055298       9.16022778       9.13064671       9.09815121       9.07402134       9.02548885       8.97752380       8.92970753       8.86474800       8.80401230       8.73984528       8.66542912       8.59577942       8.52277279       8.44541740       8.37236118       8.29754257       8.22233963       8.15138245       8.08070183       8.01207352       7.94811487       7.88630199       7.82818031       7.77533531       7.72607565       7.68171358       7.64321852       7.60930634       7.58112192       7.55921650       7.54249287       7.53196907       7.52786827       7.52913857       7.53674889       7.55060959       7.56960917       7.59477377       7.62568474       7.66109419       7.70221519       7.74823236       7.79770756       7.85226011       7.91049719       7.97071075       8.03535366       8.10205555       8.16881275       8.23955631       8.30996609       8.37833500       8.45074272       8.51894379       8.58342552       8.65248489       8.71152782       8.76666641       8.82601261       8.86853600       8.91058159       8.95342159       8.97221565       8.99867725       9.02273083       9.01774120       9.02748871       9.03297234       9.01639843       9.01959896       9.00003529       8.97335720       8.99174786       8.93856430       8.79454136       8.67009640       8.56239223       8.55040169       8.44319248       7.53853893       6.43291140       5.72121716       4.51796865       4.02458811       3.40282774       2.97710371       2.59362555       2.24304843       1.94040513       1.68538892       1.48048007       1.32530403       1.21381497       1.13652766       1.08382499       1.88601947       2.21816516       2.59922862       3.00672388       3.45330620       3.87384558       5.52341843       6.91201162       6.14847946       5.73241806       6.97980070       7.87686396       8.26809406       8.30809784       8.28902245       8.48315048       8.54523849       8.53904915       8.63495541       8.66116428       8.66503429       8.70530796       8.70650005       8.70285225       8.71374130       8.70601845       8.69050598       8.67198277       8.64217377       8.60715008       8.56736088       8.51893616       8.46677780       8.41139030       8.34950638       8.28595734       8.22100258       8.15228176       8.08378792       8.01515579       7.94536400       7.87724924       7.81042194       7.74469900       7.68169594       7.62137318       7.56387424       7.51004791       7.46015882       7.41428041       7.37293816       7.33651352       7.30487537       7.27846098       7.25759506       7.24195814       7.23196888       7.22777367       7.22894526       7.23586130       7.24845028       7.26623344       7.28949404       7.31797457       7.35117245       7.38919783       7.43171787       7.47815561       7.52841806       7.58227205       7.63884878       7.69796515       7.75968552       7.82242107       7.88626957       7.95167446       8.01585102       8.07967091       8.14365482       8.20381641       8.26233196       8.31921291       8.36952782       8.41640663       8.45969009       8.49428272       8.52393150       8.54854774       8.56196594       8.57207298       8.57465172       8.55913734       8.55743599       8.55118847       8.50686359       8.49767303       8.46729755       8.36916256       8.37066936       8.30664921       8.11315155       8.12822628       8.08898163       7.70150614       6.81215906       5.59756136       6.03966951       6.78910017       5.42534542       3.80840230       3.39894915       2.95802951       2.55488515       2.17729473       1.84809542       1.58335197       1.38666916       1.24931383       1.15700734       1.09593594       2.08955765       2.54413152       3.06985688       3.56214523       4.12541151       5.99786282       5.69506407       6.29405499       5.21887112       4.91692972       5.72828770       5.98068190       6.06970644       5.90095043       5.78128433       5.91794014       5.85997772       5.83949375       5.92622137       5.91634417       5.93227577       5.94633913       5.92978001       5.95247316       5.94863749       5.92561245       5.92609215       5.90707493       5.88152599       5.86467838       5.83086014       5.79728222       5.76741791       5.72535515       5.68462658       5.64455223       5.59820127       5.55354309       5.50816488       5.46051788       5.41481733       5.36895943       5.32311296       5.27938175       5.23673201       5.19555187       5.15690708       5.12041998       5.08637524       5.05548429       5.02756166       5.00275135       4.98163795       4.96404457       4.95002031       4.94002724       4.93383169       4.93141747       4.93313217       4.93864250       4.94787884       4.96108866       4.97783232       4.99796915       5.02169514       5.04846001       5.07801676       5.11058855       5.14550543       5.18236732       5.22160673       5.26222181       5.30368662       5.34709835       5.39047098       5.43342018       5.47817659       5.52069950       5.56215763       5.60525084       5.64221382       5.67936707       5.71797943       5.74455690       5.77428007       5.80470657       5.81812191       5.83961678       5.85548878       5.85148144       5.87040043       5.87146330       5.84504414       5.85758924       5.84169006       5.82165480       5.82764101       5.74108791       5.75745010       5.81245852       5.67782497       5.79151869       5.95644855       5.86586237       5.60804462       4.81267166       5.13851404       6.18598175       5.60793924       5.91887617       4.07170248       3.51439261       3.02530789       2.50284147       2.05127478       1.70170546       1.45249796       1.28510010       1.17650080       1.10686326       2.29650879       2.90802145       3.66292238       4.58036804       6.26206112       6.51649284       4.54304361       9.44701958       6.69303942       5.82075882       7.29097557       7.93788004       8.44765282       8.01006317       8.24819183       8.42308426       8.12866306       8.24108315       8.29684639       8.14532852       8.17164326       8.16038990       8.10455418       8.11818314       8.07716274       8.03993225       8.03636074       7.98937988       7.95081425       7.92193937       7.86301136       7.81658602       7.76951885       7.70190811       7.64562845       7.58605194       7.51567602       7.45307350       7.38742208       7.31831980       7.25447941       7.18924284       7.12446308       7.06404305       7.00439882       6.94714451       6.89422655       6.84388924       6.79710913       6.75510073       6.71689987       6.68303347       6.65444279       6.63043642       6.61125469       6.59768534       6.58911419       6.58556223       6.58771467       6.59493828       6.60704231       6.62471533       6.64720535       6.67409611       6.70617485       6.74253750       6.78245640       6.82702923       6.87507296       6.92539072       6.97992229       7.03672981       7.09396219       7.15544367       7.21727467       7.27730083       7.34252644       7.40423203       7.46245623       7.52843666       7.58358002       7.63497639       7.69788122       7.74012947       7.78119612       7.83536768       7.85917997       7.89198637       7.93432808       7.93266582       7.96403265       8.00090313       7.98182917       8.03153419       8.03969479       8.00878811       8.15397739       8.09552288       7.98073530       8.26982784       8.09245396       7.85350132       8.28373241       7.77150440       7.13870764       5.69348907       6.56897163       9.28539085       4.47997093       6.43999624       6.19041491       4.52725506       3.61588335       2.86529088       2.25754499       1.81350887       1.51117444       1.31544054       1.19228685       1.11534011       2.43082285       3.15422797       4.07240009       5.22296000       7.51149178       7.09659815       5.98471975       11.8741140       7.40759277       7.35353661       6.26169395       6.51894665       6.52203560       6.56838560       6.99062014       6.80640554       6.88426256       7.14249516       6.98367643       7.02044868       7.13153172       7.07105255       7.10218954       7.13126421       7.09177780       7.10715628       7.10817337       7.07128859       7.05965900       7.03805590       6.99884176       6.96982098       6.93029213       6.88264942       6.84217644       6.79289532       6.73906279       6.69108009       6.63744926       6.58214474       6.53130674       6.47754145       6.42458200       6.37546825       6.32563686       6.27813101       6.23447704       6.19199848       6.15278530       6.11767817       6.08514833       6.05654764       6.03235531       6.01168966       5.99532223       5.98360157       5.97599268       5.97272825       5.97416449       5.97996807       5.98983097       6.00427818       6.02301168       6.04518747       6.07165527       6.10201502       6.13485193       6.17160749       6.21159458       6.25262833       6.29727650       6.34424543       6.39035273       6.43999863       6.49054575       6.53797245       6.58952188       6.63962984       6.68380976       6.73352528       6.77908325       6.81539249       6.85867214       6.89444208       6.91906166       6.95367241       6.97168636       6.97888899       7.01095963       7.00660896       6.98677683       7.02154255       6.98978329       6.95399952       7.00991964       6.89754534       6.85686255       7.01154804       6.75387239       6.67363834       6.85702181       6.43988705       6.39096928       6.39108562       6.14385939       7.21646309       7.25410128       11.6798153       5.87659216       7.01042271       7.43417168       5.16450739       4.02253056       3.11006522       2.39125609       1.88320124       1.54652333       1.33316696       1.20124829       1.12002194       2.43082261       3.15422821       4.07240009       5.22296143       7.51149368       7.09659815       5.98471928       11.8741150       7.40759373       7.35353518       6.26169443       6.51894188       6.52203512       6.56838751       6.99061775       6.80640507       6.88426399       7.14249754       6.98367882       7.02044487       7.13153028       7.07105064       7.10219193       7.13126707       7.09177971       7.10715628       7.10817719       7.07128811       7.05966282       7.03805828       6.99883795       6.96982193       6.93029737       6.88264990       6.84217644       6.79289436       6.73906612       6.69108295       6.63744879       6.58214521       6.53130817       6.47753906       6.42458153       6.37546921       6.32563686       6.27812624       6.23447561       6.19200230       6.15278625       6.11767769       6.08514643       6.05654478       6.03235388       6.01168966       5.99532366       5.98360014       5.97598982       5.97272682       5.97416306       5.97996759       5.98982954       6.00427723       6.02301073       6.04518604       6.07165289       6.10201406       6.13484955       6.17160702       6.21159267       6.25262499       6.29727459       6.34424305       6.39035225       6.43999720       6.49054623       6.53797340       6.58951712       6.63962650       6.68381166       6.73352337       6.77907848       6.81539154       6.85867023       6.89444351       6.91906261       6.95366716       6.97168207       6.97888756       7.01095724       7.00660706       6.98677492       7.02154207       6.98978329       6.95399714       7.00991726       6.89754248       6.85686207       7.01154613       6.75387239       6.67363787       6.85702181       6.43988514       6.39096546       6.39108324       6.14385939       7.21646261       7.25410032       11.6798162       5.87659168       7.01042318       7.43416977       5.16450739       4.02253103       3.11006522       2.39125609       1.88320100       1.54652321       1.33316684       1.20124817       1.12002182       2.29650903       2.90802169       3.66292262       4.58036852       6.26206303       6.51649380       4.54304409       9.44702148       6.69303799       5.82075500       7.29096985       7.93787384       8.44764900       8.01006031       8.24818420       8.42307758       8.12865829       8.24107838       8.29683876       8.14532375       8.17163658       8.16038418       8.10454750       8.11817551       8.07715702       8.03992653       8.03635216       7.98937082       7.95080900       7.92193460       7.86300373       7.81657934       7.76951265       7.70190382       7.64562559       7.58604527       7.51567078       7.45306921       7.38741207       7.31831312       7.25447226       7.18923759       7.12445879       7.06403494       7.00439358       6.94713783       6.89421988       6.84388304       6.79710722       6.75509691       6.71689320       6.68303061       6.65443802       6.63043213       6.61125040       6.59768009       6.58911037       6.58555555       6.58771324       6.59493303       6.60704088       6.62471390       6.64720106       6.67409229       6.70617199       6.74253368       6.78245497       6.82702732       6.87507248       6.92538786       6.97991800       7.03672791       7.09395742       7.15543985       7.21727085       7.27729750       7.34252453       7.40422583       7.46245241       7.52843571       7.58357668       7.63497400       7.69787931       7.74012613       7.78119421       7.83536386       7.85917377       7.89198399       7.93432379       7.93266344       7.96402931       8.00090122       7.98182583       8.03152943       8.03969383       8.00878334       8.15397453       8.09552288       7.98073483       8.26982498       8.09245205       7.85349941       8.28373146       7.77150154       7.13870621       5.69348955       6.56897116       9.28539371       4.47997093       6.43999529       6.19041443       4.52725506       3.61588335       2.86529064       2.25754499       1.81350875       1.51117444       1.31544042       1.19228685       1.11534011       2.08955741       2.54413199       3.06985688       3.56214547       4.12541246       5.99786329       5.69506454       6.29405594       5.21887064       4.91692877       5.72828674       5.98068190       6.06970644       5.90095043       5.78128433       5.91793919       5.85997677       5.83949232       5.92622089       5.91634369       5.93227625       5.94634008       5.92978048       5.95247316       5.94863605       5.92561054       5.92609215       5.90707493       5.88152552       5.86467838       5.83085966       5.79728222       5.76741695       5.72535515       5.68462706       5.64455271       5.59820032       5.55354261       5.50816488       5.46051693       5.41481686       5.36895752       5.32311153       5.27938128       5.23673248       5.19555187       5.15690756       5.12041998       5.08637428       5.05548286       5.02756023       5.00275135       4.98163748       4.96404362       4.95001984       4.94002819       4.93383121       4.93141747       4.93313122       4.93864250       4.94787836       4.96108866       4.97783232       4.99796867       5.02169466       5.04845953       5.07801628       5.11058807       5.14550495       5.18236685       5.22160625       5.26222134       5.30368519       5.34709787       5.39047003       5.43341970       5.47817659       5.52069807       5.56215620       5.60525084       5.64221478       5.67936707       5.71798038       5.74455690       5.77427912       5.80470610       5.81812191       5.83961678       5.85548878       5.85148144       5.87039995       5.87146330       5.84504557       5.85758924       5.84168959       5.82165480       5.82764149       5.74108791       5.75745010       5.81245899       5.67782497       5.79151917       5.95644903       5.86586189       5.60804510       4.81267166       5.13851404       6.18598270       5.60793972       5.91887617       4.07170248       3.51439238       3.02530766       2.50284147       2.05127501       1.70170534       1.45249736       1.28509998       1.17650068       1.10686338       1.88601935       2.21816492       2.59922862       3.00672436       3.45330620       3.87384605       5.52341795       6.91201258       6.14847946       5.73241711       6.97980070       7.87686443       8.26809406       8.30809879       8.28902245       8.48314953       8.54523754       8.53904915       8.63495636       8.66116619       8.66503620       8.70530891       8.70650196       8.70285320       8.71374226       8.70601845       8.69050598       8.67198467       8.64217663       8.60715103       8.56736279       8.51893711       8.46677876       8.41139126       8.34950733       8.28595829       8.22100258       8.15228271       8.08378792       8.01515675       7.94536543       7.87724924       7.81042051       7.74469995       7.68169737       7.62137461       7.56387424       7.51004744       7.46015835       7.41427994       7.37293816       7.33651304       7.30487442       7.27845955       7.25759459       7.24196005       7.23196840       7.22777271       7.22894669       7.23586226       7.24845123       7.26623440       7.28949451       7.31797457       7.35117102       7.38919687       7.43171930       7.47815657       7.52841902       7.58227253       7.63884878       7.69796705       7.75968695       7.82242155       7.88626957       7.95167494       8.01585197       8.07967091       8.14365673       8.20381832       8.26233387       8.31921482       8.36952972       8.41640759       8.45969200       8.49428368       8.52393246       8.54854870       8.56196690       8.57207298       8.57465363       8.55913925       8.55743790       8.55118752       8.50686264       8.49767303       8.46729851       8.36916351       8.37066936       8.30665016       8.11315250       8.12822723       8.08898258       7.70150614       6.81215906       5.59756088       6.03966951       6.78910065       5.42534590       3.80840230       3.39894962       2.95802927       2.55488515       2.17729473       1.84809577       1.58335173       1.38666904       1.24931371       1.15700722       1.09593582       1.72313213       1.98142934       2.28811264       2.64406085       3.03478551       3.47154999       4.11057568       4.61538315       5.85384369       6.58810377       7.71909046       8.63563633       8.73955059