<VTKFile type="RectilinearGrid" version="0.1" format="ascii">
 <RectilinearGrid WholeExtent="1 120 1 18 1 18">
  <Piece Extent="1 120 1 18 1 18">
   <Coordinates>
    <DataArray type="Float32" Name="X_COORDINATES" NumberOfComponents="1" format="ascii">
  -3.06248199E-03  -3.00875423E-03  -2.95502646E-03  -2.90129869E-03  -2.84757116E-03  -2.79384339E-03  -2.74011563E-03  -2.68638786E-03  -2.63266009E-03  -2.57893233E-03  -2.52520456E-03  -2.47147679E-03  -2.41774903E-03  -2.36402126E-03  -2.31029349E-03  -2.25656573E-03  -2.20283796E-03  -2.14911019E-03  -2.09538243E-03  -2.04165466E-03  -1.98792689E-03  -1.93419924E-03  -1.88047148E-03  -1.82674371E-03  -1.77301595E-03  -1.71928818E-03  -1.66556041E-03  -1.61183265E-03  -1.55810488E-03  -1.50437711E-03  -1.45064935E-03  -1.39692170E-03  -1.34319393E-03  -1.28946616E-03  -1.23573840E-03  -1.18201063E-03  -1.12828286E-03  -1.07455510E-03  -1.02082733E-03  -9.67099622E-04  -9.13371856E-04  -8.59644089E-04  -8.05916323E-04  -7.52188556E-04  -6.98460848E-04  -6.44733082E-04  -5.91005315E-04  -5.37277549E-04  -4.83549811E-04  -4.29822045E-04  -3.76094278E-04  -3.22366541E-04  -2.68638774E-04  -2.14911022E-04  -1.61183270E-04  -1.07455511E-04  -5.37277556E-05   0.00000000       5.37277556E-05   1.07455511E-04   1.61183270E-04   2.14911022E-04   2.68638774E-04   3.22366541E-04   3.76094278E-04   4.29822045E-04   4.83549811E-04   5.37277549E-04   5.91005315E-04   6.44733082E-04   6.98460848E-04   7.52188556E-04   8.05916323E-04   8.59644089E-04   9.13371856E-04   9.67099622E-04   1.02082733E-03   1.07455510E-03   1.12828286E-03   1.18201063E-03   1.23573840E-03   1.28946616E-03   1.34319393E-03   1.39692170E-03   1.45064935E-03   1.50437711E-03   1.55810488E-03   1.61183265E-03   1.66556041E-03   1.71928818E-03   1.77301595E-03   1.82674371E-03   1.88047148E-03   1.93419924E-03   1.98792689E-03   2.04165466E-03   2.09538243E-03   2.14911019E-03   2.20283796E-03   2.25656573E-03   2.31029349E-03   2.36402126E-03   2.41774903E-03   2.47147679E-03   2.52520456E-03   2.57893233E-03   2.63266009E-03   2.68638786E-03   2.74011563E-03   2.79384339E-03   2.84757116E-03   2.90129869E-03   2.95502646E-03   3.00875423E-03   3.06248199E-03   3.11620976E-03   3.16993752E-03   3.22366529E-03   3.27739306E-03   3.33112082E-03
    </DataArray>
    <DataArray type="Float32" Name="Y_COORDINATES" NumberOfComponents="1" format="ascii">
  -4.56685928E-04  -4.02958161E-04  -3.49230424E-04  -2.95502658E-04  -2.41774906E-04  -1.88047139E-04  -1.34319387E-04  -8.05916352E-05  -2.68638778E-05   2.68638778E-05   8.05916352E-05   1.34319387E-04   1.88047139E-04   2.41774906E-04   2.95502658E-04   3.49230424E-04   4.02958161E-04   4.56685928E-04
    </DataArray>
    <DataArray type="Float32" Name="Z_COORDINATES" NumberOfComponents="1" format="ascii">
  -4.56685928E-04  -4.02958161E-04  -3.49230424E-04  -2.95502658E-04  -2.41774906E-04  -1.88047139E-04  -1.34319387E-04  -8.05916352E-05  -2.68638778E-05   2.68638778E-05   8.05916352E-05   1.34319387E-04   1.88047139E-04   2.41774906E-04   2.95502658E-04   3.49230424E-04   4.02958161E-04   4.56685928E-04
    </DataArray>
   </Coordinates>
   <PointData>
         <DataArray type="Float32" Name="Intensity" NumberOfComponents="1" format="ascii">
   1.33961391       1.45675611       1.59838974       1.76612341       1.96559119       2.21180582       2.53469658       2.96809363       3.49655294       4.03195524       4.47899532       4.80332041       5.03100491       5.19937325       5.32438564       5.40752554       5.44971371       5.45532179       5.43145466       5.38474655       5.31926298       5.23817635       5.14573622       5.04660130       4.94455004       4.84183168       4.73892021       4.63566732       4.53249598       4.43021536       4.32954407       4.23095560       4.13475800       4.04129124       3.95097899       3.86427426       3.78158641       3.70328116       3.62970138       3.56109118       3.49761200       3.43939686       3.38648987       3.33884478       3.29636168       3.25886250       3.22611356       3.19785285       3.17378092       3.15357447       3.13691425       3.12348461       3.11298847       3.10515809       3.09976220       3.09661388       3.09557366       3.09655476       3.09952545       3.10450625       3.11157250       3.12084818       3.13250303       3.14674664       3.16382098       3.18399119       3.20753813       3.23474050       3.26587725       3.30120254       3.34093213       3.38525152       3.43429708       3.48812842       3.54675317       3.61010027       3.67801881       3.75032926       3.82678461       3.90704250       3.99074578       4.07750320       4.16689014       4.25851297       4.35207415       4.44730711       4.54378223       4.64083910       4.73775053       4.83418894       4.93038034       5.02591038       5.11859512       5.20474434       5.27984810       5.33980656       5.38156939       5.40116119       5.39204264       5.34723806       5.26250696       5.13696384       4.96903181       4.74271774       4.42095947       3.97804666       3.44817114       2.92567754       2.49758649       2.17893100       1.93605351       1.73930562       1.57388139       1.43427241       1.31893814       1.22655141       1.15467060       1.10002398       1.05917478       1.02899492       1.47697854       1.62899053       1.80606771       2.00589347       2.23255992       2.50819540       2.88929248       3.46381712       4.21949434       4.97162628       5.53701115       5.88655567       6.11407232       6.30037451       6.45177698       6.54773426       6.58140087       6.56302166       6.51031065       6.43547249       6.34176779       6.23001909       6.10470581       5.97329187       5.84172297       5.71215296       5.58409691       5.45646429       5.32898998       5.20307207       5.08004904       4.95982838       4.84271193       4.72937489       4.61985397       4.51477242       4.41496849       4.32055330       4.23194599       4.14969969       4.07375860       4.00421953       3.94136333       3.88498592       3.83482862       3.79082990       3.75263906       3.71977854       3.69198561       3.66886353       3.64986229       3.63466096       3.62294126       3.61423206       3.60828280       3.60494709       3.60393333       3.60514116       3.60863948       3.61435843       3.62237096       3.63295841       3.64626169       3.66249347       3.68209338       3.70535851       3.73255515       3.76417971       3.80059052       3.84198713       3.88877583       3.94126439       3.99946308       4.06355810       4.13371897       4.20963907       4.29117298       4.37836742       4.47067690       4.56765604       4.66920662       4.77453661       4.88302755       4.99467897       5.10889769       5.22540140       5.34431696       5.46440029       5.58434439       5.70453262       5.82618475       5.94982243       6.07331324       6.19083309       6.29513645       6.38196135       6.45062590       6.49791670       6.51169395       6.47447109       6.37640238       6.22450876       6.03901577       5.81330109       5.46699524       4.90728617       4.16339779       3.41669178       2.84953046       2.47363067       2.20167589       1.97782671       1.78037000       1.60539412       1.45527971       1.33155680       1.23322368       1.15742517       1.10042787       1.05837119       1.65509522       1.85212123       2.07441235       2.31303883       2.56461287       2.85226369       3.25242090       3.95308113       5.01485205       6.07691431       6.76245117       7.07401133       7.27559853       7.51177502       7.73112535       7.85947800       7.87246752       7.80822802       7.71348858       7.60349226       7.47808313       7.33092737       7.16421795       6.99407864       6.82975483       6.66994476       6.51440096       6.36015654       6.20433283       6.05189514       5.90440273       5.75927258       5.61886120       5.48363161       5.35194921       5.22624683       5.10746002       4.99457550       4.88913727       4.79181623       4.70169735       4.61946535       4.54568434       4.47951365       4.42079306       4.36974525       4.32556534       4.28761530       4.25586939       4.22962999       4.20807648       4.19105339       4.17809486       4.16845179       4.16196871       4.15849781       4.15753078       4.15899420       4.16307878       4.16960239       4.17860174       4.19057178       4.20566893       4.22400427       4.24627542       4.27293968       4.30409622       4.34047270       4.38273573       4.43085194       4.48533964       4.54695368       4.61544180       4.69084120       4.77393484       4.86417484       4.96079206       5.06464291       5.17514753       5.29070807       5.41226149       5.53903580       5.66860485       5.80251884       5.94054842       6.08036947       6.22442627       6.37140846       6.51648521       6.66254330       6.81287384       6.96776390       7.12831020       7.28545952       7.42348909       7.54045677       7.64288568       7.73094416       7.78912306       7.77103233       7.63972235       7.42002916       7.18540668       6.98627424       6.67835283       6.00020456       4.95043898       3.90199828       3.21098924       2.81687236       2.53298330       2.28406143       2.04773498       1.82757783       1.63252449       1.46768081       1.33409631       1.22992527       1.15137219       1.09369433       1.88185430       2.13636446       2.41675544       2.70881510       2.99547815       3.28494668       3.61373687       4.20344639       5.71175575       7.27031326       8.04839420       8.22948551       8.44891262       8.82270908       9.21848774       9.43686104       9.35564327       9.21163750       9.07714367       8.90962315       8.75922108       8.57272720       8.33863926       8.13029861       7.93429279       7.73191690       7.55304193       7.37066317       7.17235565       6.99739265       6.82454872       6.64283895       6.48311901       6.32455873       6.16074944       6.01733494       5.87833929       5.73925400       5.61903381       5.50618172       5.39602995       5.30224800       5.21798229       5.13791037       5.07120275       5.01418543       4.96122503       4.91845512       4.88418674       4.85294437       4.82895041       4.81161118       4.79606295       4.78551102       4.77990723       4.77517796       4.77423000       4.77725267       4.78081417       4.78806782       4.79936075       4.81152010       4.82828379       4.85025454       4.87395668       4.90380478       4.94096613       4.98098946       5.02872276       5.08645105       5.14793921       5.21798182       5.30085802       5.38754272       5.48229170       5.59254742       5.70513439       5.82343006       5.95953465       6.09534454       6.23378944       6.39148092       6.54398537       6.69591427       6.86883402       7.03325510       7.19816875       7.38555002       7.55755711       7.72495890       7.91564941       8.10107136       8.29802895       8.52003860       8.69580269       8.83596802       8.99383736       9.12104034       9.25708485       9.32984447       9.10766888       8.71162415       8.34050274       8.12600899       7.94805956       7.17920971       5.64046764       4.15150547       3.57195306       3.24969363       2.96351266       2.67901611       2.38912416       2.11090660       1.85847092       1.64004016       1.45998514       1.31856549       1.21213615       1.13468575       2.16798759       2.49731445       2.84901595       3.21234798       3.53625345       3.80123949       4.21922588       4.67531824       6.96287823       8.56812382       9.24212551       10.0757780       10.6462688       11.0371695       11.9103079       12.2986050       11.9756994       11.8094988       11.6430998       11.3501625       11.1730404       10.9239473       10.5732059       10.3124962       10.0710459       9.78621101       9.55823898       9.33946991       9.06499577       8.83869171       8.63581753       8.38706493       8.17887783       7.99308825       7.77029896       7.58209991       7.41879940       7.23206758       7.07403851       6.94121313       6.79571056       6.67238808       6.57346153       6.47024250       6.38255787       6.31594944       6.25007582       6.19395876       6.15414619       6.11737442       6.08598471       6.06576014       6.04921389       6.03546429       6.02839994       6.02498674       6.02379704       6.02619696       6.03211069       6.04162645       6.05345869       6.06874895       6.09068727       6.11566305       6.14389896       6.18295813       6.22772598       6.27486849       6.33737421       6.40993881       6.48235703       6.57410765       6.68158436       6.78380156       6.90783596       7.05411339       7.18686199       7.34154701       7.52497053       7.68449259       7.86518812       8.08041668       8.25872993       8.45566177       8.69314957       8.88551807       9.09775734       9.35783958       9.56355667       9.77588558       10.0448675       10.2732029       10.5190973       10.8529530       11.0887184       11.2527819       11.5315704       11.6897478       11.8459244       12.1544409       11.7609339       10.8894987       10.5017862       9.93975258       9.11922169       8.46085548       6.87949467       4.62126446       4.17843723       3.76780605       3.50398350       3.18138742       2.82017088       2.47075582       2.14369082       1.85322952       1.61148334       1.42216408       1.28111374       1.17989564       2.53018808       2.97543931       3.42978406       3.88024449       4.29593515       4.60500526       6.89005995       7.18490887       6.28847790       6.13317966       7.53560686       8.12945175       7.93066645       8.30262661       8.38064289       8.19205093       8.28801155       8.17842865       7.92698383       7.81611443       7.61117649       7.38559771       7.26217175       7.07195902       6.84927416       6.69761658       6.53060913       6.35485888       6.20650959       6.03649092       5.87221289       5.72968388       5.57583570       5.42956018       5.29490328       5.15874434       5.03298521       4.91582727       4.80241728       4.69943380       4.60658836       4.51972580       4.44117737       4.37399626       4.31285048       4.25822544       4.21498299       4.17587471       4.14131212       4.11734295       4.09545326       4.07599497       4.06579542       4.05622005       4.04735851       4.04660940       4.04583073       4.04471922       4.05126619       4.05804157       4.06425905       4.07848740       4.09399414       4.10960102       4.13423061       4.16175604       4.19077063       4.22997379       4.27395344       4.32134724       4.37951899       4.44409466       4.51389503       4.59427691       4.68242788       4.77577019       4.87834787       4.99051142       5.10576200       5.22847986       5.36078501       5.49120331       5.63174248       5.77937651       5.91553736       6.07166290       6.23371363       6.37369108       6.53902960       6.69729710       6.84005642       7.05101347       7.23169661       7.34632826       7.56042480       7.75701523       7.86107540       8.10146523       8.20512104       8.10768700       8.28757286       8.20731163       7.84175110       8.03553104       7.44896078       6.07195187       6.22658539       7.12209368       6.83901453       4.57119703       4.26281357       3.84723520       3.39896774       2.94723153       2.50465322       2.10889673       1.78441215       1.53562260       1.35408688       1.22630358       2.97340226       3.63163853       4.32408571       4.93871784       5.88522530       8.10836792       7.03134680       6.43827009       6.26725578       5.28412294       6.74142504       6.96831274       6.57360649       6.80722189       6.50224638       6.36657238       6.60258245       6.55380678       6.45470762       6.46962309       6.35813189       6.23130226       6.18044519       6.04295588       5.90524960       5.82242250       5.66746283       5.52088928       5.43341255       5.29423761       5.15545559       5.06644821       4.93828297       4.81375408       4.73394299       4.62024117       4.51212740       4.44274139       4.34662008       4.25837851       4.20127535       4.12492990       4.05732632       4.01390314       3.95784187       3.90921593       3.87927771       3.84180617       3.80929232       3.79124522       3.76896453       3.74917269       3.74086308       3.73021793       3.72008848       3.71962523       3.71803117       3.71554923       3.72204709       3.72854352       3.73307467       3.74701285       3.76244617       3.77471805       3.79788637       3.82465363       3.84633422       3.88145590       3.92282653       3.95574832       4.00578642       4.06480742       4.11018991       4.17757463       4.25560141       4.31330109       4.39939499       4.49566936       4.56403780       4.66797876       4.78023243       4.85731745       4.97573900       5.10092211       5.18566895       5.31666136       5.45136452       5.53346014       5.67116451       5.82064390       5.89773178       6.02585745       6.15766335       6.20412540       6.32182598       6.42844296       6.41128922       6.50204277       6.54781008       6.31494427       6.44615889       6.75077724       6.52252579       6.90706444       6.67668056       5.23815346       6.22544146       6.38429642       6.98626947       8.05372810       5.84220123       4.90135717       4.28960371       3.60073066       2.94612122       2.39400601       1.96433103       1.64783156       1.42358327       1.26920366       3.42985153       4.39679289       5.52950811       6.74006271       9.48017693       9.32651806       5.22348022       9.92560291       6.93232679       4.75008631       8.14128780       7.07632160       6.92294455       7.34544420       6.41376543       6.79142332       7.19760418       6.82930613       6.88589048       6.99420547       6.63333750       6.55662298       6.53188705       6.21171665       6.12709808       6.04023695       5.76984310       5.68845558       5.60326529       5.38559055       5.29182482       5.21629858       5.04607630       4.95920992       4.89393044       4.75489807       4.68092489       4.62609243       4.51653624       4.45761442       4.41241598       4.33177233       4.28836966       4.25376129       4.19872856       4.16904068       4.14568138       4.11133385       4.09243917       4.07903528       4.05995226       4.04913330       4.04337358       4.03476715       4.02974844       4.02951765       4.02830029       4.02772188       4.03179216       4.03691626       4.04071569       4.04911709       4.06159830       4.07098484       4.08497047       4.10778952       4.12477016       4.14638329       4.18410110       4.21075916       4.24231005       4.30000973       4.33733606       4.38122559       4.46342087       4.51036453       4.56793499       4.67760754       4.73279905       4.80316448       4.94072008       5.00479221       5.08561993       5.25257206       5.32540703       5.41124010       5.62376213       5.70478201       5.77674818       6.04105282       6.12439966       6.19862080       6.51150894       6.53479147       6.60174084       6.95585823       6.84816885       6.78318596       7.14699650       6.74564123       6.36695385       7.29489756       6.87449360       7.01588345       8.06957912       4.70519304       6.90910387       9.83851433       5.17435646       9.26655102       9.41226959       6.69369698       5.48926353       4.36223745       3.40053558       2.66070890       2.12129760       1.74102712       1.47932637       1.30273473       3.73448253       4.94719410       6.46432686       8.27324772       11.2812004       8.38705254       5.90621853       12.6314726       6.24626541       7.58482218       5.98561621       5.40350962       6.52029800       5.98076487       5.86526251       6.54774237       6.07546473       5.92879343       6.30762529       5.94128180       5.81977749       5.98373318       5.66900110       5.56464815       5.59665775       5.32263041       5.22933674       5.20355797       4.97325420       4.87789822       4.82201290       4.64276600       4.55448055       4.48128223       4.34010983       4.25877857       4.18439627       4.07710505       4.00411892       3.93735933       3.85857487       3.79786491       3.74446726       3.68866992       3.64243960       3.60438156       3.56695032       3.53498435       3.51085234       3.48766160       3.46817112       3.45518804       3.44254208       3.43300509       3.42852616       3.42375088       3.42209744       3.42444777       3.42620373       3.43163919       3.44056106       3.44900584       3.46219158       3.47889781       3.49554014       3.51834893       3.54530334       3.57253361       3.60720515       3.64776087       3.68804026       3.73599839       3.79383159       3.84831882       3.90940523       3.98865533       4.05527925       4.12698030       4.23283672       4.30592442       4.38399649       4.52182055       4.59281445       4.67559338       4.84977198       4.90281248       4.99070835       5.21456623       5.23674583       5.32120800       5.58815002       5.55280733       5.64787197       5.95501757       5.78962564       5.90287590       6.26165962       5.88440800       6.02497149       6.49129200       5.81600809       5.93103743       6.46501017       5.35783100       5.94043875       7.51605272       6.19304514       12.5108166       5.82535887       8.33379936       11.2090712       8.21738052       6.41887093       4.90974426       3.70370126       2.82779026       2.21499252       1.79474819       1.51067829       1.32126117       3.73448229       4.94719410       6.46432734       8.27324772       11.2812004       8.38705254       5.90621853       12.6314716       6.24626493       7.58482027       5.98561335       5.40350580       6.52029705       5.98076487       5.86526394       6.54774189       6.07546854       5.92879629       6.30762577       5.94127989       5.81977892       5.98373079       5.66899920       5.56464815       5.59665966       5.32263279       5.22933626       5.20356369       4.97325659       4.87790203       4.82201338       4.64276886       4.55448103       4.48128176       4.34010839       4.25877810       4.18439722       4.07710314       4.00411558       3.93735981       3.85857487       3.79786491       3.74446845       3.68866920       3.64244032       3.60438061       3.56695032       3.53498650       3.51085162       3.48766160       3.46817088       3.45518589       3.44254136       3.43300176       3.42852521       3.42375040       3.42209816       3.42444754       3.42620587       3.43163919       3.44056034       3.44900417       3.46218872       3.47889709       3.49554205       3.51835036       3.54530144       3.57253647       3.60720539       3.64776063       3.68804026       3.73599792       3.79383373       3.84831929       3.90940762       3.98865676       4.05527878       4.12697792       4.23283291       4.30592632       4.38399649       4.52181864       4.59281540       4.67559481       4.84977055       4.90280962       4.99070978       5.21456814       5.23675156       5.32120991       5.58814812       5.55280781       5.64786959       5.95501947       5.78963089       5.90287828       6.26165915       5.88441086       6.02497244       6.49129200       5.81601191       5.93103695       6.46501017       5.35783339       5.94043732       7.51605225       6.19304371       12.5108147       5.82535791       8.33379936       11.2090702       8.21737957       6.41887093       4.90974426       3.70370078       2.82779050       2.21499228       1.79474807       1.51067817       1.32126105       3.42985177       4.39679337       5.52950907       6.74006319       9.48017788       9.32651806       5.22348022       9.92560387       6.93232489       4.75008249       8.14128685       7.07631826       6.92294121       7.34544086       6.41376495       6.79141998       7.19760466       6.82930851       6.88589048       6.99420261       6.63333797       6.55661774       6.53188133       6.21171331       6.12709665       6.04023552       5.76984406       5.68845558       5.60326242       5.38558674       5.29182053       5.21629333       5.04607868       4.95921087       4.89392662       4.75489616       4.68092155       4.62609196       4.51653433       4.45761490       4.41241693       4.33177280       4.28836632       4.25375700       4.19872713       4.16903687       4.14567757       4.11133146       4.09244156       4.07903194       4.05994654       4.04912996       4.04336929       4.03476429       4.02974701       4.02951670       4.02829838       4.02771902       4.03178835       4.03691530       4.04071426       4.04911375       4.06159639       4.07098484       4.08496857       4.10778618       4.12476492       4.14637947       4.18409586       4.21075487       4.24230766       4.30000639       4.33733511       4.38122749       4.46341848       4.51036596       4.56793165       4.67760372       4.73279953       4.80316496       4.94072008       5.00478745       5.08561516       5.25256777       5.32540417       5.41123819       5.62375784       5.70477962       5.77674770       6.04105139       6.12439823       6.19862366       6.51150751       6.53479290       6.60174322       6.95586205       6.84816742       6.78319025       7.14699459       6.74564171       6.36695862       7.29489708       6.87449694       7.01588631       8.06957626       4.70519257       6.90910387       9.83851242       5.17435646       9.26655102       9.41226959       6.69369650       5.48926401       4.36223745       3.40053654       2.66070890       2.12129760       1.74102712       1.47932625       1.30273473       2.97340202       3.63163877       4.32408571       4.93871784       5.88522530       8.10836697       7.03134680       6.43827009       6.26725531       5.28412199       6.74142456       6.96831226       6.57360649       6.80722141       6.50224590       6.36657286       6.60258341       6.55380583       6.45470715       6.46962309       6.35813093       6.23130274       6.18044567       6.04295540       5.90524864       5.82242203       5.66746283       5.52088881       5.43341112       5.29423761       5.15545559       5.06644821       4.93828154       4.81375313       4.73394251       4.62024117       4.51212740       4.44274139       4.34661961       4.25837755       4.20127439       4.12492895       4.05732536       4.01390266       3.95784163       3.90921497       3.87927699       3.84180498       3.80929112       3.79124379       3.76896381       3.74917126       3.74086261       3.73021746       3.72008777       3.71962428       3.71803021       3.71554875       3.72204566       3.72854304       3.73307323       3.74701238       3.76244545       3.77471781       3.79788589       3.82465386       3.84633398       3.88145566       3.92282629       3.95574784       4.00578642       4.06480742       4.11019039       4.17757416       4.25560093       4.31330109       4.39939451       4.49566936       4.56403732       4.66797829       4.78023195       4.85731840       4.97573900       5.10092068       5.18566847       5.31666183       5.45136452       5.53345966       5.67116356       5.82064247       5.89773130       6.02585697       6.15766287       6.20412540       6.32182598       6.42844391       6.41128874       6.50204420       6.54781103       6.31494427       6.44615889       6.75077677       6.52252531       6.90706253       6.67667961       5.23815250       6.22544146       6.38429546       6.98626947       8.05372715       5.84220123       4.90135717       4.28960371       3.60073042       2.94612145       2.39400554       1.96433115       1.64783156       1.42358315       1.26920354       2.53018832       2.97543931       3.42978406       3.88024497       4.29593563       4.60500479       6.89005947       7.18490887       6.28847790       6.13318014       7.53560734       8.12945080       7.93066740       8.30262566       8.38064098       8.19205093       8.28801060       8.17842865       7.92698383       7.81611395       7.61117601       7.38559914       7.26217127       7.07196045       6.84927559       6.69761753       6.53060961       6.35485983       6.20651054       6.03649139       5.87221289       5.72968435       5.57583523       5.42956066       5.29490376       5.15874577       5.03298664       4.91582727       4.80241632       4.69943476       4.60658979       4.51972723       4.44117737       4.37399626       4.31285143       4.25822639       4.21498299       4.17587566       4.14131260       4.11734295       4.09545374       4.07599497       4.06579638       4.05622005       4.04735804       4.04660940       4.04583073       4.04471922       4.05126667       4.05804157       4.06425953       4.07848787       4.09399462       4.10960150       4.13423157       4.16175795       4.19077206       4.22997475       4.27395582       4.32134914       4.37951946       4.44409513       4.51389551       4.59427691       4.68242836       4.77577066       4.87834787       4.99051142       5.10576153       5.22847986       5.36078596       5.49120426       5.63174391       5.77937651       5.91553831       6.07166386       6.23371363       6.37369013       6.53902769       6.69729710       6.84005642       7.05101490       7.23169756       7.34632921       7.56042624       7.75701618       7.86107635       8.10146523       8.20512199       8.10768604       8.28757095       8.20731068       7.84175014       8.03553009       7.44896078       6.07195139       6.22658491       7.12209320       6.83901405       4.57119703       4.26281309       3.84723496       3.39896750       2.94723129       2.50465274       2.10889649       1.78441215       1.53562248       1.35408700       1.22630370       2.16798759       2.49731445       2.84901571       3.21234775       3.53625321       3.80123925       4.21922636       4.67531776       6.96287823       8.56812572       9.24212551       10.0757790       10.6462688