<VTKFile type="RectilinearGrid" version="0.1" format="ascii">
 <RectilinearGrid WholeExtent="1 120 1 18 1 18">
  <Piece Extent="1 120 1 18 1 18">
   <Coordinates>
    <DataArray type="Float32" Name="X_COORDINATES" NumberOfComponents="1" format="ascii">
  -3.06248199E-03  -3.00875423E-03  -2.95502646E-03  -2.90129869E-03  -2.84757116E-03  -2.79384339E-03  -2.74011563E-03  -2.68638786E-03  -2.63266009E-03  -2.57893233E-03  -2.52520456E-03  -2.47147679E-03  -2.41774903E-03  -2.36402126E-03  -2.31029349E-03  -2.25656573E-03  -2.20283796E-03  -2.14911019E-03  -2.09538243E-03  -2.04165466E-03  -1.98792689E-03  -1.93419924E-03  -1.88047148E-03  -1.82674371E-03  -1.77301595E-03  -1.71928818E-03  -1.66556041E-03  -1.61183265E-03  -1.55810488E-03  -1.50437711E-03  -1.45064935E-03  -1.39692170E-03  -1.34319393E-03  -1.28946616E-03  -1.23573840E-03  -1.18201063E-03  -1.12828286E-03  -1.07455510E-03  -1.02082733E-03  -9.67099622E-04  -9.13371856E-04  -8.59644089E-04  -8.05916323E-04  -7.52188556E-04  -6.98460848E-04  -6.44733082E-04  -5.91005315E-04  -5.37277549E-04  -4.83549811E-04  -4.29822045E-04  -3.76094278E-04  -3.22366541E-04  -2.68638774E-04  -2.14911022E-04  -1.61183270E-04  -1.07455511E-04  -5.37277556E-05   0.00000000       5.37277556E-05   1.07455511E-04   1.61183270E-04   2.14911022E-04   2.68638774E-04   3.22366541E-04   3.76094278E-04   4.29822045E-04   4.83549811E-04   5.37277549E-04   5.91005315E-04   6.44733082E-04   6.98460848E-04   7.52188556E-04   8.05916323E-04   8.59644089E-04   9.13371856E-04   9.67099622E-04   1.02082733E-03   1.07455510E-03   1.12828286E-03   1.18201063E-03   1.23573840E-03   1.28946616E-03   1.34319393E-03   1.39692170E-03   1.45064935E-03   1.50437711E-03   1.55810488E-03   1.61183265E-03   1.66556041E-03   1.71928818E-03   1.77301595E-03   1.82674371E-03   1.88047148E-03   1.93419924E-03   1.98792689E-03   2.04165466E-03   2.09538243E-03   2.14911019E-03   2.20283796E-03   2.25656573E-03   2.31029349E-03   2.36402126E-03   2.41774903E-03   2.47147679E-03   2.52520456E-03   2.57893233E-03   2.63266009E-03   2.68638786E-03   2.74011563E-03   2.79384339E-03   2.84757116E-03   2.90129869E-03   2.95502646E-03   3.00875423E-03   3.06248199E-03   3.11620976E-03   3.16993752E-03   3.22366529E-03   3.27739306E-03   3.33112082E-03
    </DataArray>
    <DataArray type="Float32" Name="Y_COORDINATES" NumberOfComponents="1" format="ascii">
  -4.56685928E-04  -4.02958161E-04  -3.49230424E-04  -2.95502658E-04  -2.41774906E-04  -1.88047139E-04  -1.34319387E-04  -8.05916352E-05  -2.68638778E-05   2.68638778E-05   8.05916352E-05   1.34319387E-04   1.88047139E-04   2.41774906E-04   2.95502658E-04   3.49230424E-04   4.02958161E-04   4.56685928E-04
    </DataArray>
    <DataArray type="Float32" Name="Z_COORDINATES" NumberOfComponents="1" format="ascii">
  -4.56685928E-04  -4.02958161E-04  -3.49230424E-04  -2.95502658E-04  -2.41774906E-04  -1.88047139E-04  -1.34319387E-04  -8.05916352E-05  -2.68638778E-05   2.68638778E-05   8.05916352E-05   1.34319387E-04   1.88047139E-04   2.41774906E-04   2.95502658E-04   3.49230424E-04   4.02958161E-04   4.56685928E-04
    </DataArray>
   </Coordinates>
   <PointData>
         <DataArray type="Float32" Name="Intensity" NumberOfComponents="1" format="ascii">
   1.57997048       1.74620056       1.94391716       2.17504573       2.44508696       2.76510906       3.14763570       3.58369660       4.00378609       4.30535221       4.45541811       4.52684593       4.60327911       4.69019461       4.74633408       4.75190401       4.71813107       4.65879965       4.57785463       4.47808695       4.36672974       4.25011063       4.12890053       4.00164557       3.87016177       3.74053168       3.61885977       3.50648522       3.40194511       3.30574751       3.21965384       3.14391232       3.07765317       3.02017307       2.97109079       2.93005395       2.89640594       2.86925554       2.84780335       2.83134413       2.81914473       2.81054354       2.80499125       2.80189586       2.80067921       2.80096579       2.80241370       2.80461311       2.80729437       2.81025887       2.81325531       2.81613088       2.81879163       2.82108545       2.82293797       2.82433271       2.82518888       2.82548904       2.82527709       2.82452965       2.82327366       2.82160997       2.81957603       2.81725097       2.81480432       2.81234646       2.81003284       2.80812073       2.80682063       2.80639768       2.80725312       2.80972433       2.81417084       2.82114887       2.83122945       2.84492064       2.86284232       2.88569069       2.91412640       2.94889092       2.99082518       3.04053593       3.09831500       3.16452265       3.23988199       3.32522392       3.42024040       3.52320790       3.63370800       3.75322461       3.88037372       4.00904131       4.13328362       4.25149345       4.36520863       4.47370577       4.57063532       4.64883852       4.70556068       4.73682261       4.72891521       4.67088795       4.58271885       4.50539351       4.43298435       4.28206253       3.98047709       3.56139445       3.12690425       2.74602580       2.42749214       2.15871859       1.92867100       1.73189580       1.56650019       1.43093145       1.32251060       1.23756194       1.17203426       1.12204027       1.77692854       1.99197745       2.24326563       2.53206754       2.86707807       3.27157044       3.79016900       4.45059252       5.11606026       5.53406715       5.63279486       5.62364197       5.70737028       5.84319115       5.89807463       5.84156466       5.73906326       5.63522530       5.52006245       5.38045645       5.22574663       5.07101822       4.91677904       4.75338650       4.58036995       4.41097212       4.25698614       4.11816072       3.98949862       3.87093687       3.76587915       3.67521834       3.59666419       3.52844429       3.47085643       3.42369413       3.38530040       3.35476732       3.33146381       3.31387377       3.30109811       3.29280448       3.28802586       3.28584242       3.28585911       3.28759098       3.29042912       3.29403663       3.29818702       3.30246735       3.30661130       3.31059837       3.31422353       3.31723285       3.31967711       3.32154536       3.32262588       3.32295036       3.32266378       3.32165265       3.31989050       3.31760597       3.31485128       3.31158042       3.30805373       3.30450892       3.30098009       3.29772663       3.29517317       3.29356480       3.29322004       3.29472327       3.29856467       3.30512428       3.31526446       3.32991552       3.34938097       3.37448239       3.40668559       3.44658446       3.49498510       3.55346775       3.62218952       3.70079970       3.79111338       3.89540434       4.01262712       4.13939571       4.27601576       4.42753601       4.59397316       4.76344490       4.92300892       5.07353830       5.22480488       5.37608528       5.51220894       5.62415409       5.72508526       5.82450342       5.87770176       5.82005501       5.68281078       5.59861994       5.60687828       5.50701618       5.08932495       4.42581177       3.76780629       3.25137424       2.84865475       2.51505208       2.22741652       1.97714198       1.76299763       1.58454370       1.43976140       1.32513714       1.23629439       1.16860235       2.01559830       2.28797626       2.60062575       2.95301414       3.35403156       3.82910514       4.45736551       5.39483404       6.44583941       7.03601742       6.97616816       6.80253553       6.96789026       7.24827909       7.27887917       7.05609989       6.80966043       6.65048361       6.51552582       6.33554745       6.12164974       5.92383289       5.74146080       5.53689337       5.31008291       5.09290791       4.90256691       4.73682213       4.58424520       4.43970633       4.31376553       4.20949173       4.11766672       4.03737688       3.97209120       3.91887283       3.87520933       3.84205794       3.81757545       3.79878473       3.78587723       3.77856588       3.77477074       3.77381015       3.77564430       3.77912164       3.78349280       3.78896713       3.79492664       3.80051994       3.80611515       3.81154561       3.81603193       3.81991768       3.82324600       3.82541490       3.82674980       3.82733107       3.82674003       3.82538223       3.82328105       3.82009482       3.81641221       3.81229305       3.80737686       3.80241084       3.79766440       3.79276323       3.78849316       3.78555632       3.78376007       3.78374457       3.78667569       3.79266477       3.80227160       3.81746316       3.83858895       3.86537790       3.90064216       3.94623542       4.00115013       4.06766319       4.14864683       4.24070215       4.34469748       4.46982002       4.61290932       4.76321268       4.92627764       5.11398077       5.32781553       5.55005646       5.74965763       5.92749596       6.12127161       6.33110809       6.50676250       6.63805914       6.79458380       7.03762054       7.25540161       7.22018719       6.93797493       6.77328444       6.94642591       7.00468922       6.41556597       5.36797810       4.43378496       3.80809999       3.33496428       2.93539214       2.58420348       2.27263570       2.00125027       1.77123630       1.58184242       1.43036377       1.31248462       1.22287023       2.30158257       2.64186883       3.02451396       3.44741607       3.91996741       4.44554758       5.03798532       6.01041603       7.80613232       8.58961010       8.16695595       7.69260740       8.21871662       8.88280296       8.70538807       8.09912777       7.58457518       7.35479927       7.30702782       7.09322119       6.76173019       6.56312847       6.37807369       6.10305977       5.82319546       5.56013155       5.32204103       5.14931536       4.98667240       4.79873228       4.66152334       4.56173992       4.44346285       4.35348463       4.29658794       4.22877789       4.17820835       4.15590191       4.12606716       4.10169983       4.09818077       4.09104538       4.08308601       4.08904886       4.09440947       4.09501934       4.10298634       4.11346626       4.11822605       4.12429333       4.13463259       4.14061451       4.14336967       4.15049171       4.15585232       4.15524149       4.15755796       4.16097736       4.15767813       4.15488386       4.15550375       4.15056181       4.14335489       4.14074993       4.13561535       4.12592316       4.12041807       4.11699915       4.10812902       4.10139513       4.10259867       4.09985209       4.09591103       4.10596323       4.11647844       4.12274742       4.14907885       4.18229961       4.20762491       4.25959444       4.32993078       4.38921404       4.47915316       4.59787607       4.69840670       4.83403158       5.02029991       5.18123341       5.35013819       5.58521366       5.84610128       6.12010670       6.38759899       6.56802273       6.76245594       7.08838987       7.29769039       7.34164953       7.56949139       8.08270168       8.68123055       8.84894657       8.18287945       7.66026783       8.13415241       8.55582047       7.77478886       5.98297930       5.01369143       4.42423964       3.90039611       3.42914248       3.00743008       2.62595057       2.28678989       1.99396741       1.74958348       1.55279601       1.39962041       1.28376675       2.64790440       3.07771301       3.54786539       4.05042553       4.57018757       5.11275005       5.90097523       6.74135113       10.0186071       9.86379051       9.16151333       8.95085239       10.1268530       11.3709612       10.9874935       10.0835619       9.14978790       8.89935017       9.03664684       8.67354870       8.21729946       8.06561852       7.78761530       7.41630602       7.08149147       6.70773029       6.42080593       6.22444773       6.00186634       5.77489614       5.60678673       5.47564030       5.33642769       5.21917868       5.14639044       5.07174349       5.00154781       4.97290134       4.94539785       4.90897560       4.90373039       4.90240860       4.88883495       4.89588404       4.90726137       4.90635920       4.91686773       4.93207169       4.93720102       4.94635201       4.95975304       4.96628141       4.97202826       4.98079443       4.98587990       4.98762465       4.99049520       4.99244595       4.99046946       4.98733521       4.98547220       4.98073339       4.97216845       4.96651793       4.96095037       4.94863796       4.94008255       4.93668175       4.92378473       4.91461277       4.91802168       4.91028214       4.90540457       4.92199421       4.92798424       4.93616104       4.97553301       5.00767183       5.03947735       5.11197376       5.18995237       5.26501751       5.38277674       5.52226114       5.65353870       5.82022905       6.04421854       6.26394796       6.45616150       6.73771954       7.10890150       7.43732643       7.79581594       8.06775284       8.21558094       8.66205883       9.01991367       8.87859249       9.12577343       10.0602446       10.9523849       11.3191786       10.0752831       8.90673923       9.12062550       9.83002758       9.98078823       6.70893764       5.87593460       5.09261227       4.55016804       4.03118134       3.52980638       3.06099725       2.63255477       2.25697637       1.94224656       1.68972921       1.49473798       1.34877181       3.07904387       3.66006184       4.29067278       4.91585779       5.51115990       6.41173315       9.82055950       9.24313545       8.21517658       7.55043983       7.85643864       8.10944939       8.06824875       8.17698669       8.22863197       8.03293324       7.83547020       7.67890692       7.17211723       6.91523266       6.91695261       6.58624220       6.22984695       6.09012318       5.84786701       5.53926325       5.35911798       5.15466928       4.94107723       4.83158350       4.67395830       4.49875736       4.43429089       4.35134411       4.23250341       4.19164038       4.15612745       4.08628130       4.06409979       4.05818272       4.02607107       4.01635027       4.02407646       4.01532316       4.01223183       4.02536106       4.03000975       4.02880859       4.04124117       4.05238008       4.05124092       4.05887508       4.07137108       4.07048559       4.07160091       4.08154631       4.08136988       4.07614517       4.08095694       4.08176184       4.07188749       4.07027054       4.07186556       4.06019783       4.05245876       4.05447197       4.04501915       4.03337097       4.03567600       4.03349495       4.02247286       4.02689075       4.03851175       4.03437185       4.04560709       4.08026791       4.09079885       4.11460400       4.18593407       4.22593164       4.26785421       4.38626146       4.47241640       4.53662395       4.70908260       4.86815786       4.97501755       5.18236876       5.38686323       5.56462812       5.86397982       6.10210657       6.24037743       6.58771038       6.91129732       6.90898466       7.15973520       7.66085052       7.81627607       8.00687695       8.19987392       8.15008068       8.03881073       8.08198833       7.83435535       7.53091478       8.18454075       9.20582390       9.78893280       6.38973570       5.49035549       4.89485216       4.27093935       3.64214921       3.06294942       2.56359458       2.15493393       1.83457625       1.59209609       1.41359234       3.60642290       4.46747875       5.45786619       6.36069107       7.63409996       10.7430182       8.74898338       7.39228487       7.19177866       6.44789410       7.41887474       8.13326931       7.19490814       6.98869181       7.20638227       7.11900854       7.36037159       7.31221008       7.05068541       7.05492687       6.98559189       6.78721571       6.62036705       6.43219805       6.24219322       6.05576563       5.87223864       5.70746326       5.51481915       5.36196804       5.25785255       5.10107851       4.97556400       4.91478539       4.80960798       4.72362137       4.69565344       4.62961721       4.57303810       4.57010508       4.53642654       4.49944210       4.51002884       4.49977779       4.47474146       4.48918200       4.49492741       4.47768545       4.48875761       4.50343132       4.49209309       4.49604511       4.51367092       4.50746870       4.50330400       4.51913118       4.51780939       4.50660181       4.51710320       4.52056122       4.50495529       4.50796080       4.51613188       4.49995422       4.49495077       4.50796175       4.49602795       4.48453951       4.50308466       4.50119638       4.48732424       4.51320839       4.52800512       4.51903343       4.55621815       4.59439754       4.59972429       4.65565157       4.72516489       4.75551414       4.83965683       4.94632769       5.00868702       5.13120985       5.28699923       5.39063406       5.53876209       5.72850561       5.89170408       6.06950092       6.25053024       6.43768644       6.62107658       6.78100491       6.97529650       7.04114676       7.03137541       7.29206991       7.33885241       7.09176683       7.17954874       6.96735525       7.17578983       8.11318111       7.39642000       6.42794991       7.17962265       7.37300873       8.72828674       10.7054462       7.60650015       6.33658171       5.43557787       4.44790602       3.58939838       2.90187955       2.37203264       1.97445166       1.68251991       1.47212791       4.15375614       5.41022158       6.98672771       8.70212173       12.2570877       10.6224632       5.49519396       10.0499277       8.43502617       6.35705709       8.57843304       6.98812485       5.00150442       5.71989107       5.84303951       5.70452356       6.20587873       5.87607622       5.93470573       6.12440252       5.99200916       6.00042009       5.93802309       5.74125004       5.67642498       5.56917095       5.31966209       5.23915434       5.16457129       4.98520279       4.90925169       4.80004883       4.67536020       4.64683771       4.55708647       4.47131491       4.46917725       4.40831995       4.34660912       4.35819626       4.32572222       4.28415823       4.30145502       4.28647566       4.25836468       4.27648163       4.27358437       4.25436306       4.26846600       4.27365828       4.26078749       4.26771355       4.27710390       4.26987076       4.26931429       4.27886963       4.27696609       4.27059269       4.27667236       4.28003645       4.27096415       4.27079248       4.27925825       4.27139282       4.26367855       4.27734756       4.27482843       4.26021290       4.27959824       4.28622150       4.26819324       4.29566383       4.31490564       4.29853439       4.33858681       4.37499046       4.36519098       4.42473173       4.48837328       4.49230194       4.57509947       4.66650391       4.69647455       4.81725025       4.92681551       5.00375700       5.17730904       5.24934626       5.33306122       5.57961130       5.68057585       5.74488544       5.94148731       5.99830914       5.98667717       6.12208223       5.92948818       5.87050772       6.20758057       5.70103121       5.83215952       5.72023344       5.01166201       6.99049711       8.55747414       6.32691908       8.44087791       10.0250092       5.46096230       10.5915260       12.2163286       8.67315674       6.96134090       5.38876867       4.13577175       3.21881366       2.56003046       2.08902860       1.75384247       1.51711774       4.52308941       6.09556961       8.18974876       10.7207565       13.7451439       8.23964977       5.66664314       12.9746008       7.25087595       7.25475597       6.45422125       5.19634581       5.85141039       6.43670416       5.53687191       5.76243687       5.91838074       5.27854824       5.52236366       5.63682795       5.04596901       5.13460112       5.16159773       4.66711617       4.64028072       4.66542673       4.27619553       4.16111231       4.23285961       3.95534897       3.78073263       3.85431314       3.69629169       3.53906488       3.59891462       3.52038383       3.39570475       3.44049382       3.41578102       3.32680321       3.35661411       3.36371684       3.30640388       3.32055712       3.34275055       3.31225491       3.31352210       3.33868885       3.32787633       3.32066727       3.34158444       3.34339881       3.33198071       3.34514308       3.35400867       3.34151125       3.34548259       3.35763073       3.34650326       3.34113431       3.35398293       3.34679627       3.33276105       3.34394407       3.34432769       3.32361627       3.33010149       3.34333372       3.31999087       3.31762290       3.35027313       3.33190942       3.31647825       3.37490034       3.37368298       3.34276867       3.43081260       3.46287823       3.41788340       3.53856540       3.62431526       3.56579304       3.71571374       3.87913013       3.80855727       3.97326899       4.25299501       4.18474627       4.28853798       4.67747736       4.65718126       4.67223501       5.16271830       5.14231205       5.04284430       5.62801743       5.52213669       5.27013826       5.90598154       5.75761890       5.52677584       6.42550755       5.84808445       5.19141912       6.45140266       7.23769093       7.23232222       12.9296980       5.61796618       8.22172260       13.7079678       10.6866341       8.16167927       6.07272482       4.50445461       3.41857648       2.67213440       2.15465069       1.79358506       1.54172885       4.52308941       6.09556961       8.18974781       10.7207575       13.7451439       8.23964787       5.66664314       12.9745998       7.25087023       7.25475645       6.45422077       5.19634342       5.85140991       6.43670368       5.53687239       5.76244020       5.91837883       5.27855062       5.52236080       5.63682985       5.04596663       5.13460302       5.16159868       4.66711044       4.64027882       4.66542768       4.27619505       4.16110945       4.23285723       3.95535088       3.78073525       3.85431337       3.69629049       3.53906465       3.59891415       3.52038693       3.39570189       3.44049263       3.41577840       3.32680321       3.35661554       3.36371851       3.30640125       3.32055712       3.34275126       3.31225586       3.31352711       3.33868909       3.32788110       3.32066751       3.34158826       3.34339809       3.33198190       3.34514236       3.35400963       3.34151459       3.34548259       3.35763144       3.34650421       3.34113574       3.35398269       3.34679627       3.33276129       3.34394670       3.34433389       3.32361960       3.33010006       3.34333658       3.31998873       3.31762552       3.35027409       3.33191109       3.31648064       3.37490106       3.37368536       3.34277177       3.43081141       3.46287799       3.41788411       3.53856969       3.62431812       3.56579232       3.71571493       3.87913132       3.80856156       3.97326994       4.25299597       4.18474436       4.28853750       4.67747831       4.65718365       4.67223787       5.16271877       5.14231539       5.04284477       5.62802076       5.52213717       5.27014208       5.90598249       5.75761747       5.52677584       6.42550516       5.84808636       5.19142485       6.45140648       7.23769522       7.23232174       12.9296913       5.61796665       8.22172260       13.7079687       10.6866341       8.16167831       6.07272434       4.50445414       3.41857648       2.67213416       2.15465045       1.79358494       1.54172897       4.15375614       5.41022158       6.98672724       8.70212173       12.2570858       10.6224623       5.49519300       10.0499277       8.43502903       6.35705996       8.57843018       6.98812723       5.00150537       5.71989250       5.84304237       5.70452452       6.20587778       5.87607718       5.93470478       6.12440395       5.99201155       6.00041723       5.93802500       5.74125004       5.67642355       5.56917000       5.31966352       5.23915148       5.16456842       4.98520041       4.90924835       4.80004787       4.67536068       4.64683819       4.55708647       4.47131348       4.46917772       4.40832281       4.34661055       4.35819483       4.32572126       4.28416109       4.30145597       4.28647709       4.25836515       4.27648115       4.27358294       4.25436449       4.26846790       4.27366018       4.26078701       4.26771307       4.27710485       4.26987123       4.26931524       4.27886772       4.27696514       4.27059174       4.27667093       4.28003502       4.27096128       4.27079153       4.27925825       4.27139330       4.26367950       4.27734566       4.27482939       4.26021528       4.27960348       4.28622055       4.26819324       4.29566669       4.31490517       4.29853773       4.33858776       4.37498951       4.36518955       4.42472982       4.48837566       4.49230003       4.57509661       4.66650391       4.69647503       4.81725025       4.92681503       5.00375557       5.17730761       5.24934578       5.33305883       5.57961035       5.68057823       5.74488258       5.94148874       5.99830627       5.98667765       6.12208319       5.92949057       5.87050390       6.20758247       5.70102930       5.83216000       5.72023678       5.01166439       6.99049568       8.55747700       6.32691956       8.44087696       10.0250082       5.46096277       10.5915241       12.2163296       8.67315674       6.96134138       5.38876867       4.13577223       3.21881342       2.56003046       2.08902836       1.75384247       1.51711762       3.60642242       4.46747923       5.45786524       6.36069107       7.63409901       10.7430162       8.74898148       7.39228535       7.19177818       6.44789457       7.41887426       8.13327026       7.19490862       6.98869228       7.20638275       7.11900902       7.36037159       7.31221008       7.05068493       7.05492687       6.98559189       6.78721476       6.62036705       6.43219805       6.24219227       6.05576563       5.87223959       5.70746326       5.51482010       5.36196899       5.25785398       5.10107851       4.97556496       4.91478539       4.80960846       4.72362232       4.69565392       4.62961817       4.57303858       4.57010603       4.53642654       4.49944258       4.51002932       4.49977779       4.47474337       4.48918200       4.49492836       4.47768593       4.48875761       4.50343132       4.49209309       4.49604559       4.51367044       4.50746870       4.50330400       4.51913118       4.51780939       4.50660229       4.51710320       4.52056170       4.50495577       4.50796080       4.51613092       4.49995232       4.49494934       4.50796080       4.49602699       4.48453903       4.50308466       4.50119543       4.48732424       4.51320887       4.52800465       4.51903296       4.55621815       4.59439707       4.59972334       4.65565109       4.72516489       4.75551414       4.83965635       4.94632721       5.00868607       5.13120937       5.28699875       5.39063311       5.53876209       5.72850609       5.89170456       6.06950092       6.25053024       6.43768644       6.62107754       6.78100538       6.97529602       7.04114723       7.03137541       7.29206800       7.33885193       7.09176636       7.17954826       6.96735477       7.17578936       8.11318111       7.39642048       6.42794991       7.17962313       7.37300825       8.72828579       10.7054462       7.60649920       6.33658171       5.43557835       4.44790602       3.58939862       2.90187931       2.37203264       1.97445178       1.68251979       1.47212780       3.07904339       3.66006184       4.29067230       4.91585732       5.51115894       6.41173267       9.82055950       9.24313450       8.21517658       7.55043983       7.85643959       8.10945034       8.06824970       8.17698765       8.22863483       8.03293419       7.83547163       7.67890787       7.17211723       6.91523266       6.91695309       6.58624315       6.22984743       6.09012461       5.84786701       5.53926420       5.35911846       5.15467119       4.94107866       4.83158493       4.67395830       4.49875832       4.43429136       4.35134506       4.23250389       4.19164133       4.15612793       4.08628130       4.06410074       4.05818367       4.02607203       4.01635075       4.02407646       4.01532364       4.01223183       4.02536154       4.03001118       4.02880955       4.04124117       4.05238008       4.05124140       4.05887556       4.07137203       4.07048512       4.07160091       4.08154678       4.08136940       4.07614517       4.08095694       4.08176231       4.07188845       4.07027149       4.07186508       4.06019783       4.05245924       4.05447292       4.04502010       4.03337193       4.03567600       4.03349543       4.02247429       4.02689314       4.03851223       4.03437328       4.04560804       4.08026791       4.09079885       4.11460400       4.18593454       4.22593307       4.26785517       4.38626146       4.47241688       4.53662443       4.70908403       4.86815786       4.97501945       5.18237019       5.38686466       5.56463003       5.86398125       6.10210752       6.24037886       6.58771181       6.91129780       6.90898561       7.15973520       7.66084909       7.81627607       8.00687790       8.19987488       8.15008068       8.03881264       8.08198929       7.83435535       7.53091574       8.18454075       9.20582199       9.78893280       6.38973570       5.49035501       4.89485216       4.27093935       3.64214921       3.06294918       2.56359434       2.15493393       1.83457601       1.59209609       1.41359210       2.64790487       3.07771325       3.54786515       4.05042505       4.57018757       5.11274910       5.90097427       6.74134970       10.0186043       9.86379147       9.16151333       8.95085239       10.1268539