<VTKFile type="RectilinearGrid" version="0.1" format="ascii">
 <RectilinearGrid WholeExtent="1 120 1 18 1 18">
  <Piece Extent="1 120 1 18 1 18">
   <Coordinates>
    <DataArray type="Float32" Name="X_COORDINATES" NumberOfComponents="1" format="ascii">
  -3.06248199E-03  -3.00875423E-03  -2.95502646E-03  -2.90129869E-03  -2.84757116E-03  -2.79384339E-03  -2.74011563E-03  -2.68638786E-03  -2.63266009E-03  -2.57893233E-03  -2.52520456E-03  -2.47147679E-03  -2.41774903E-03  -2.36402126E-03  -2.31029349E-03  -2.25656573E-03  -2.20283796E-03  -2.14911019E-03  -2.09538243E-03  -2.04165466E-03  -1.98792689E-03  -1.93419924E-03  -1.88047148E-03  -1.82674371E-03  -1.77301595E-03  -1.71928818E-03  -1.66556041E-03  -1.61183265E-03  -1.55810488E-03  -1.50437711E-03  -1.45064935E-03  -1.39692170E-03  -1.34319393E-03  -1.28946616E-03  -1.23573840E-03  -1.18201063E-03  -1.12828286E-03  -1.07455510E-03  -1.02082733E-03  -9.67099622E-04  -9.13371856E-04  -8.59644089E-04  -8.05916323E-04  -7.52188556E-04  -6.98460848E-04  -6.44733082E-04  -5.91005315E-04  -5.37277549E-04  -4.83549811E-04  -4.29822045E-04  -3.76094278E-04  -3.22366541E-04  -2.68638774E-04  -2.14911022E-04  -1.61183270E-04  -1.07455511E-04  -5.37277556E-05   0.00000000       5.37277556E-05   1.07455511E-04   1.61183270E-04   2.14911022E-04   2.68638774E-04   3.22366541E-04   3.76094278E-04   4.29822045E-04   4.83549811E-04   5.37277549E-04   5.91005315E-04   6.44733082E-04   6.98460848E-04   7.52188556E-04   8.05916323E-04   8.59644089E-04   9.13371856E-04   9.67099622E-04   1.02082733E-03   1.07455510E-03   1.12828286E-03   1.18201063E-03   1.23573840E-03   1.28946616E-03   1.34319393E-03   1.39692170E-03   1.45064935E-03   1.50437711E-03   1.55810488E-03   1.61183265E-03   1.66556041E-03   1.71928818E-03   1.77301595E-03   1.82674371E-03   1.88047148E-03   1.93419924E-03   1.98792689E-03   2.04165466E-03   2.09538243E-03   2.14911019E-03   2.20283796E-03   2.25656573E-03   2.31029349E-03   2.36402126E-03   2.41774903E-03   2.47147679E-03   2.52520456E-03   2.57893233E-03   2.63266009E-03   2.68638786E-03   2.74011563E-03   2.79384339E-03   2.84757116E-03   2.90129869E-03   2.95502646E-03   3.00875423E-03   3.06248199E-03   3.11620976E-03   3.16993752E-03   3.22366529E-03   3.27739306E-03   3.33112082E-03
    </DataArray>
    <DataArray type="Float32" Name="Y_COORDINATES" NumberOfComponents="1" format="ascii">
  -4.56685928E-04  -4.02958161E-04  -3.49230424E-04  -2.95502658E-04  -2.41774906E-04  -1.88047139E-04  -1.34319387E-04  -8.05916352E-05  -2.68638778E-05   2.68638778E-05   8.05916352E-05   1.34319387E-04   1.88047139E-04   2.41774906E-04   2.95502658E-04   3.49230424E-04   4.02958161E-04   4.56685928E-04
    </DataArray>
    <DataArray type="Float32" Name="Z_COORDINATES" NumberOfComponents="1" format="ascii">
  -4.56685928E-04  -4.02958161E-04  -3.49230424E-04  -2.95502658E-04  -2.41774906E-04  -1.88047139E-04  -1.34319387E-04  -8.05916352E-05  -2.68638778E-05   2.68638778E-05   8.05916352E-05   1.34319387E-04   1.88047139E-04   2.41774906E-04   2.95502658E-04   3.49230424E-04   4.02958161E-04   4.56685928E-04
    </DataArray>
   </Coordinates>
   <PointData>
         <DataArray type="Float32" Name="Intensity" NumberOfComponents="1" format="ascii">
   1.78926420       1.98818171       2.21885943       2.48325682       2.78682876       3.13816595       3.53965783       3.95806861       4.29637814       4.45649338       4.45354509       4.41047430       4.41283178       4.43703365       4.43597841       4.40448856       4.35717726       4.29782057       4.22288036       4.13425446       4.03671932       3.93043685       3.81349325       3.68975282       3.56835580       3.45536685       3.35070515       3.25263667       3.16183662       3.08065295       3.00956488       2.94698191       2.89242482       2.84650922       2.80856276       2.77720904       2.75180268       2.73173618       2.71608114       2.70427227       2.69585586       2.69005585       2.68626761       2.68423295       2.68355632       2.68378520       2.68472385       2.68616676       2.68784499       2.68966103       2.69152999       2.69326544       2.69482207       2.69620609       2.69731641       2.69810557       2.69862032       2.69883490       2.69869924       2.69826984       2.69758725       2.69661641       2.69540572       2.69406986       2.69261456       2.69108701       2.68967938       2.68849421       2.68762374       2.68733311       2.68784213       2.68934512       2.69227910       2.69703412       2.70386648       2.71335959       2.72626853       2.74302745       2.76416516       2.79057574       2.82285213       2.86161208       2.90818381       2.96318364       3.02596092       3.09700155       3.17790985       3.26813936       3.36530304       3.46883702       3.58054399       3.70037222       3.82216382       3.93689942       4.04091263       4.13621330       4.22263479       4.29540730       4.35266542       4.39790106       4.42725039       4.42618656       4.40017033       4.39623833       4.43745661       4.43837643       4.27696896       3.93863583       3.52116394       3.12099457       2.77097964       2.46858263       2.20519495       1.97538304       1.77720165       1.60970616       1.47129822       1.35936689       1.27054822       1.20115507       2.01921773       2.27351189       2.56580734       2.89900947       3.28448606       3.74685431       4.32348347       5.00053787       5.56795263       5.76691484       5.62875891       5.47526073       5.48619032       5.52622366       5.46837521       5.34880590       5.24790382       5.16997480       5.07380009       4.95294809       4.82448196       4.68897629       4.53665924       4.37122631       4.21125746       4.06976891       3.94292831       3.82251906       3.70980144       3.61087394       3.52586746       3.45089602       3.38577247       3.33214784       3.28845525       3.25252986       3.22394514       3.20171332       3.18454313       3.17201877       3.16350794       3.15797353       3.15472054       3.15336585       3.15349412       3.15466595       3.15653372       3.15880299       3.16133332       3.16400099       3.16652894       3.16885066       3.17100978       3.17279434       3.17417955       3.17528152       3.17592812       3.17610788       3.17598224       3.17541814       3.17440772       3.17314625       3.17154813       3.16962409       3.16759753       3.16545749       3.16325974       3.16128826       3.15968728       3.15858912       3.15828276       3.15913868       3.16158581       3.16600180       3.17277837       3.18262434       3.19651461       3.21503854       3.23861098       3.26846981       3.30555725       3.35030437       3.40482640       3.47057629       3.54583812       3.63086033       3.72956228       3.84165168       3.96095228       4.08647919       4.22663736       4.38492107       4.54796076       4.69744205       4.83018255       4.95600700       5.07417202       5.16783762       5.24363852       5.34244633       5.45939302       5.51416111       5.47171640       5.45940351       5.61092854       5.74626112       5.54564953       4.97866821       4.30326366       3.72851014       3.26780653       2.88368797       2.55160666       2.26026654       2.00679135       1.79067469       1.61078572       1.46465898       1.34863114       1.25828922       2.28937912       2.60766673       2.96914244       3.37611914       3.84288812       4.40152025       5.13899994       6.16570854       7.11409473       7.35924816       6.93062735       6.61097670       6.75476837       6.86818314       6.64960623       6.30600643       6.11828756       6.05724192       5.95708609       5.79620647       5.62668371       5.46076727       5.27020597       5.04616261       4.83376074       4.66717005       4.52186060       4.37520981       4.23902464       4.12160826       4.02083778       3.93420744       3.85848713       3.79648137       3.74856758       3.70866537       3.67652464       3.65321279       3.63529277       3.62182760       3.61387420       3.60956812       3.60692310       3.60644841       3.60801291       3.61035037       3.61325574       3.61666965       3.62026429       3.62389851       3.62719917       3.63022995       3.63312030       3.63532043       3.63699460       3.63852477       3.63930106       3.63937116       3.63931322       3.63861346       3.63714790       3.63556504       3.63356161       3.63091207       3.62818074       3.62530994       3.62219954       3.61923170       3.61658740       3.61456466       3.61323714       3.61283326       3.61458850       3.61862040       3.62441230       3.63395977       3.64911318       3.66870499       3.69360328       3.72731829       3.76874375       3.81792068       3.88105917       3.95777774       4.04477119       4.14551926       4.26293564       4.39841604       4.54349184       4.68728542       4.85269165       5.06346273       5.28461981       5.47138643       5.63384724       5.80037498       5.95781803       6.05483007       6.11427641       6.30075502       6.64121437       6.85475349       6.73762321       6.59327888       6.91138411       7.33604002       7.08884764       6.14164591       5.11736250       4.38225126       3.82552648       3.36020160       2.95440197       2.59395838       2.27658772       2.00314856       1.77373910       1.58659518       1.43799448       1.32275176       2.60471702       2.99895811       3.43973923       3.92768145       4.47736025       5.09447002       5.79550314       6.91052675       8.69401360       8.92506886       7.91819859       7.39496517       8.06051540       8.39772129       7.62084341       6.76988602       6.55154848       6.56813622       6.53412724       6.35404682       6.07302237       5.90676689       5.70974922       5.35590935       5.08441401       4.94940519       4.77891970       4.59510517       4.46469402       4.32345676       4.19591236       4.12383699       4.03770876       3.95586157       3.92435932       3.88465309       3.83657432       3.82494569       3.81372428       3.78808904       3.78651547       3.79296279       3.78265882       3.78312802       3.79494119       3.79382467       3.79465723       3.80609083       3.80933547       3.80944657       3.81809783       3.82282400       3.82174754       3.82678628       3.83135843       3.82911086       3.83056688       3.83416677       3.83084559       3.82883930       3.83116198       3.82715774       3.82181907       3.82286906       3.81905842       3.81059718       3.81047702       3.80852413       3.79799914       3.79731441       3.80002832       3.78996921       3.78997970       3.80204535       3.79811335       3.80057526       3.82801461       3.84239411       3.85506153       3.90427232       3.94730926       3.97991848       4.06187010       4.15092945       4.22376060       4.34961605       4.49226999       4.62288570       4.80287170       4.97172880       5.10736895       5.37697077       5.72752571       5.92072630       6.08150387       6.35905790       6.53631735       6.56471014       6.54741764       6.76998138       7.61708450       8.38416195       8.04132462       7.37703943       7.90003681       8.90239906       8.66828537       6.88583899       5.77315187       5.07482815       4.45945311       3.91110373       3.42434216       2.98468351       2.59149814       2.24889731       1.95975482       1.72368491       1.53685617       1.39289367       2.97754073       3.47389793       4.01960182       4.60786009       5.22464371       5.87580299       6.68701839       7.50368166       10.9496193       10.2369204       8.67968655       8.56975842       10.0144854       10.8617802       9.47876740       8.13651371       7.84952354       7.98148012       8.05768299       7.77785492       7.35731745       7.24466372       6.93171120       6.38229895       6.11280298       5.92347145       5.67720890       5.49888372       5.30365658       5.10578346       4.98130798       4.87195301       4.75295591       4.67660046       4.62866163       4.56989193       4.52560711       4.50909901       4.48962021       4.46614790       4.46516275       4.47092342       4.46207619       4.46485329       4.47867584       4.47837400       4.48262119       4.49632740       4.49941540       4.50374746       4.51400375       4.51725149       4.52072954       4.52666807       4.52839375       4.53050470       4.53244114       4.53207159       4.53234434       4.53048468       4.52818727       4.52663088       4.52099657       4.51740408       4.51474953       4.50524616       4.50104046       4.49909925       4.48682022       4.48312855       4.48511410       4.47350073       4.47193050       4.48285818       4.47995520       4.48289824       4.50870419       4.53152943       4.55035305       4.59620476       4.65816021       4.70868540       4.78526688       4.90635347       5.01821089       5.14075279       5.33775282       5.53476381       5.70845699       5.94901752       6.14078760       6.40910053       6.95115376       7.25956154       7.36474657       7.77809143       8.05549335       7.97066450       7.83617401       8.13375759       9.46893120       10.8355074       9.98326778       8.54251671       8.65797138       10.2160797       10.9173250       7.47464228       6.66451979       5.85725069       5.20615959       4.59025574       4.00320816       3.45882010       2.96376848       2.53071833       2.16681886       1.87226367       1.64155579       1.46569395       3.42859435       4.09462929       4.83277941       5.57121229       6.31334162       7.45941162       11.0169802       9.83134460       8.78011894       7.96190310       8.00653648       8.27444363       8.21309376       8.09186077       8.21370411       8.06515121       7.69807196       7.53707790       7.12679052       6.92785978       6.99963093       6.60614586       6.18612862       6.13612461       5.89646578       5.49389410       5.36387157       5.27003193       4.99719000       4.84459686       4.78240681       4.61122227       4.50880289       4.48528433       4.37873936       4.30558014       4.31341314       4.26272345       4.21086979       4.23211718       4.21789312       4.18005562       4.20123434       4.21098280       4.18619871       4.19901037       4.21934223       4.20518970       4.20880222       4.23163891       4.22499132       4.22111082       4.24202538       4.23972178       4.23012638       4.24736261       4.24763012       4.23359919       4.24641371       4.24851990       4.23083019       4.23879051       4.24334335       4.22303200       4.22522259       4.23384094       4.21291113       4.20798445       4.22367096       4.20663548       4.19325686       4.21898174       4.21382666       4.19314146       4.23115635       4.25089741       4.23133326       4.28203726       4.33828020       4.33372831       4.40410376       4.51453638       4.54253912       4.64039230       4.81196213       4.87934589       5.02737188       5.29541779       5.39159918       5.51914549       5.91486788       6.15288877       6.20039368       6.61244011       7.00256062       6.92753839       7.11843395       7.52876759       7.68831015       8.04475880       8.19301414       8.07419491       8.19082451       8.25654888       7.99396276       7.94724989       8.75320148       9.79783058       10.9887457       7.43881130       6.29379606       5.55185461       4.81473160       4.07839012       3.41411376       2.84944510       2.38867450       2.02500534       1.74589014       1.53652418       3.96080756       4.91943598       6.04524279       7.06486130       8.52094841       12.0934925       9.56549835       7.88547564       7.67519522       6.93237114       7.82076597       8.51796246       7.51507044       7.21663809       7.81452084       7.85344028       7.81683540       7.85044432       7.65013885       7.60469770       7.58315182       7.31248617       7.10987186       6.96191025       6.72847986       6.53283072       6.33729458       6.13909197       5.98456192       5.81893635       5.67408609       5.55077791       5.42847633       5.35062361       5.27024937       5.18131447       5.14348698       5.10272169       5.04679871       5.03359652       5.01932764       4.98559856       4.98426533       4.98653269       4.96824932       4.97117758       4.98077297       4.97172117       4.97484970       4.98640919       4.98257542       4.98374748       4.99410868       4.99296904       4.99132967       4.99893188       4.99913979       4.99456549       4.99888515       4.99995613       4.99263525       4.99376106       4.99620199       4.98688507       4.98521948       4.99038887       4.98080635       4.97748756       4.98787737       4.98120928       4.97862959       4.99818850       4.99958992       5.00193214       5.03680038       5.05499697       5.06959867       5.12622404       5.17063522       5.20993853       5.29865026       5.38141060       5.45987129       5.58045864       5.70478249       5.84930658       6.01104259       6.16337347       6.35995722       6.55135965       6.74231482       6.97245121       7.11558533       7.31207657       7.57901812       7.59432888       7.63321781       7.83322430       7.79694939       7.82658720       7.78706312       7.19196177       7.49343920       8.50180149       7.80184937       6.91357040       7.66776037       7.87196541       9.54751492       12.0579653       8.49548340       7.04294205       6.02496481       4.90176105       3.94553590       3.19027114       2.60893035       2.16886592       1.84062970       1.59919906       4.49485874       5.83809042       7.52464056       9.30305099       12.9943457       11.1957378       5.41973639       9.86946392       9.45606422       7.04437876       8.65727043       6.95606709       5.00881338       6.03263521       6.82594490       6.01528883       6.57305717       6.83038187       6.43622589       6.92053890       6.97677422       6.63667583       6.71912003       6.62430859       6.34238482       6.26874590       6.13325167       5.95197868       5.90824461       5.70994759       5.52609253       5.51214743       5.37897825       5.26396894       5.23648453       5.14658689       5.08208513       5.05535555       5.00731802       4.98064852       4.96324396       4.93207073       4.92365360       4.92204714       4.90134335       4.90026569       4.90818357       4.89376640       4.89462996       4.90617514       4.89689541       4.89706564       4.90819550       4.90306950       4.90062809       4.90926838       4.90821791       4.90278339       4.90791750       4.91056442       4.90234995       4.90402985       4.91070700       4.90082216       4.89972019       4.91049623       4.90102148       4.89939547       4.91521215       4.90997934       4.91066933       4.93263483       4.93739033       4.94576550       4.97793007       4.99881029       5.02526855       5.07348108       5.10396242       5.16842699       5.25732088       5.28685379       5.40174294       5.53324938       5.54666853       5.73179007       5.92845726       5.96574450       6.14593363       6.28235292       6.35209513       6.63002062       6.72228575       6.63733196       6.97131348       6.91255379       6.42604637       6.81659985       6.56729078       6.00661945       6.80879641       6.01900196       5.00470829       6.96390867       8.64343262       7.01358843       9.46546936       9.86023617       5.38852024       11.1674585       12.9590988       9.27798653       7.50220108       5.81905079       4.47888231       3.50113678       2.79535580       2.28439522       1.91406965       1.64663732       4.84799862       6.48771048       8.64247417       11.0374823       13.5757275       7.93925905       5.50224733       13.6372404       7.81105232       7.06279278       6.57449341       5.20597935       5.67320728       6.63849735       5.49836254       5.41839170       5.97721577       5.28887129       5.23170757       5.64756203       5.03761721       4.84857655       5.11917782       4.66939354       4.42395830       4.57376003       4.30442286       4.04490089       4.12299681       3.96923947       3.70983386       3.77388287       3.74273992       3.51980138       3.53430128       3.57379508       3.42270684       3.39929175       3.46986294       3.38722301       3.33975720       3.40888596       3.37888288       3.32755232       3.38012552       3.38181138       3.33719778       3.37005448       3.38750076       3.35324907       3.37002373       3.39255404       3.36706543       3.37341428       3.39555955       3.37516522       3.37582731       3.39660764       3.37740660       3.37405276       3.39568663       3.37574553       3.36666131       3.39296317       3.37369013       3.35432053       3.38855672       3.37580729       3.34101844       3.38422084       3.38859725       3.33558130       3.38368678       3.42037797       3.35326862       3.39572024       3.48416471       3.41860795       3.43570304       3.59000063       3.55872607       3.53741169       3.75892234       3.80030704       3.73035860       3.98333597       4.14793730       4.06627703       4.31337166       4.59133959       4.44282198       4.67294550       5.12846613       4.86112785       5.03439617       5.64850903       5.23556805       5.28201485       5.97435141       5.41780329       5.49245596       6.63515520       5.67359018       5.20464849       6.57958078       7.05645418       7.79725170       13.6084833       5.45938349       7.92588806       13.5466747       11.0095377       8.61841011       6.46778965       4.83159590       3.69379902       2.90489340       2.34972453       1.95454454       1.67234063       4.84799814       6.48771048       8.64247417       11.0374813       13.5757265       7.93925905       5.50224590       13.6372395       7.81104851       7.06279039       6.57449198       5.20597839       5.67320681       6.63849211       5.49836445       5.41839218       5.97721624       5.28887701       5.23170757       5.64756584       5.03761482       4.84857368       5.11917305       4.66939354       4.42395544       4.57375669       4.30442142       4.04490089       4.12299585       3.96923757       3.70982671       3.77387738       3.74273825       3.51979756       3.53430128       3.57378983       3.42270470       3.39929080       3.46986294       3.38722110       3.33975697       3.40887809       3.37888145       3.32754874       3.38012266       3.38181019       3.33719277       3.37005496       3.38749790       3.35324788       3.37002921       3.39255309       3.36706781       3.37341642       3.39555812       3.37516522       3.37582707       3.39661098       3.37740850       3.37405157       3.39568973       3.37574220       3.36666298       3.39296150       3.37368679       3.35432220       3.38855696       3.37580776       3.34101772       3.38421559       3.38859844       3.33557725       3.38368058       3.42037678       3.35326695       3.39571714       3.48415923       3.41860771       3.43570209       3.59000158       3.55872083       3.53741002       3.75892210       3.80031109       3.73035836       3.98333597       4.14793873       4.06627607       4.31336737       4.59133816       4.44282198       4.67294502       5.12846470       4.86112642       5.03439426       5.64850473       5.23556662       5.28201723       5.97435188       5.41780186       5.49245358       6.63515329       5.67359400       5.20464325       6.57957983       7.05645561       7.79725313       13.6084824       5.45938492       7.92588806       13.5466747       11.0095367       8.61841011       6.46778917       4.83159685       3.69379902       2.90489340       2.34972405       1.95454466       1.67234051       4.49485874       5.83808947       7.52464008       9.30305099       12.9943457       11.1957397       5.41973639       9.86946011       9.45606518       7.04437590       8.65727139       6.95606232       5.00881672       6.03263378       6.82594013       6.01529074       6.57306099       6.83038282       6.43622446       6.92053795       6.97677231       6.63667583       6.71911383       6.62430573       6.34237957       6.26874685       6.13324833       5.95197582       5.90824509       5.70994902       5.52609444       5.51214457       5.37897778       5.26396894       5.23648643       5.14658833       5.08208275       5.05535316       5.00731659       4.98064375       4.96324205       4.93206739       4.92365170       4.92204571       4.90134192       4.90026712       4.90818357       4.89376402       4.89463043       4.90616941       4.89689541       4.89706373       4.90819311       4.90307093       4.90062714       4.90926743       4.90821457       4.90278196       4.90791893       4.91056395       4.90234947       4.90403175       4.91070795       4.90082407       4.89972734       4.91049862       4.90102005       4.89939404       4.91521406       4.90997934       4.91067028       4.93263054       4.93738985       4.94576693       4.97792673       4.99881029       5.02526617       5.07347536       5.10396194       5.16842651       5.25732088       5.28685093       5.40173960       5.53324938       5.54666901       5.73178911       5.92845297       5.96574497       6.14593363       6.28234911       6.35209417       6.63001871       6.72229099       6.63733244       6.97131205       6.91255283       6.42604446       6.81660175       6.56728840       6.00661850       6.80879784       6.01900005       5.00470972       6.96391058       8.64342594       7.01359177       9.46547318       9.86024189       5.38851976       11.1674585       12.9590988       9.27798653       7.50220108       5.81905079       4.47888184       3.50113654       2.79535580       2.28439546       1.91406989       1.64663720       3.96080732       4.91943550       6.04524183       7.06486130       8.52094841       12.0934935       9.56549835       7.88547468       7.67519617       6.93237114       7.82076550       8.51796246       7.51506948       7.21663809       7.81451941       7.85344028       7.81683588       7.85044479       7.65013885       7.60469770       7.58315134       7.31248617       7.10987139       6.96191025       6.72847891       6.53283024       6.33729458       6.13909149       5.98456097       5.81893587       5.67408514       5.55077744       5.42847633       5.35062408       5.27024937       5.18131399       5.14348698       5.10272169       5.04679871       5.03359556       5.01932669       4.98559809       4.98426437       4.98653221       4.96824932       4.97117758       4.98077250       4.97172070       4.97484922       4.98640919       4.98257446       4.98374701       4.99410915       4.99296904       4.99132824       4.99893141       4.99913979       4.99456644       4.99888611       4.99995613       4.99263573       4.99376059       4.99620199       4.98688555       4.98521948       4.99038839       4.98080492       4.97748756       4.98787737       4.98120880       4.97862959       4.99818945       4.99958992       5.00193214       5.03680038       5.05499697       5.06959867       5.12622309       5.17063570       5.20993710       5.29864979       5.38141060       5.45987034       5.58045721       5.70478201       5.84930563       6.01104164       6.16337299       6.35995722       6.55135918       6.74231482       6.97245073       7.11558580       7.31207609       7.57901812       7.59432745       7.63321638       7.83322430       7.79694891       7.82658672       7.78706217       7.19196129       7.49343920       8.50180244       7.80184984       6.91357040       7.66775990       7.87196636       9.54751492       12.0579643       8.49548340       7.04294252       6.02496529       4.90176105       3.94553638       3.19027114       2.60893059       2.16886616       1.84062958       1.59919906       3.42859435       4.09462881       4.83277941       5.57121181       6.31334162       7.45941210       11.0169811       9.83134556       8.78012085       7.96190357       8.00653744       8.27444363       8.21309280       8.09186077       8.21370506       8.06515026       7.69807291       7.53707933       7.12679100       6.92786026       6.99962997       6.60614634       6.18612909       6.13612604       5.89646578       5.49389505       5.36387157       5.27003193       4.99719095       4.84459686       4.78240633       4.61122179       4.50880289       4.48528433       4.37873936       4.30558014       4.31341314       4.26272345       4.21087027       4.23211718       4.21789312       4.18005562       4.20123434       4.21098280       4.18619871       4.19901133       4.21934223       4.20519018       4.20880318       4.23163986       4.22499228       4.22111273       4.24202681       4.23972225       4.23012590       4.24736261       4.24763107       4.23359919       4.24641514       4.24851942       4.23083162       4.23879051       4.24334335       4.22303200       4.22522306       4.23384142       4.21291065       4.20798445       4.22367096       4.20663595       4.19325781       4.21898222       4.21382666       4.19314194       4.23115635       4.25089836       4.23133326       4.28203726       4.33828115       4.33372927       4.40410376       4.51453733       4.54254007       4.64039230       4.81196356       4.87934732       5.02737331       5.29541874       5.39160013       5.51914644       5.91486931       6.15288925       6.20039463       6.61244202       7.00256205       6.92753839       7.11843586       7.52876759       7.68831158       8.04476070       8.19301510       8.07419586       8.19082546       8.25654984       7.99396324       7.94725037       8.75320244       9.79783154       10.9887447       7.43881035       6.29379606       5.55185461       4.81473160       4.07838964       3.41411448       2.84944558       2.38867474       2.02500558       1.74589026       1.53652418       2.97754097       3.47389770       4.01960135       4.60786009       5.22464371       5.87580252       6.68701935       7.50368214       10.9496202       10.2369223       8.67968845       8.56975746       10.0144844