<VTKFile type="RectilinearGrid" version="0.1" format="ascii">
 <RectilinearGrid WholeExtent="1 120 1 18 1 18">
  <Piece Extent="1 120 1 18 1 18">
   <Coordinates>
    <DataArray type="Float32" Name="X_COORDINATES" NumberOfComponents="1" format="ascii">
  -3.06248199E-03  -3.00875423E-03  -2.95502646E-03  -2.90129869E-03  -2.84757116E-03  -2.79384339E-03  -2.74011563E-03  -2.68638786E-03  -2.63266009E-03  -2.57893233E-03  -2.52520456E-03  -2.47147679E-03  -2.41774903E-03  -2.36402126E-03  -2.31029349E-03  -2.25656573E-03  -2.20283796E-03  -2.14911019E-03  -2.09538243E-03  -2.04165466E-03  -1.98792689E-03  -1.93419924E-03  -1.88047148E-03  -1.82674371E-03  -1.77301595E-03  -1.71928818E-03  -1.66556041E-03  -1.61183265E-03  -1.55810488E-03  -1.50437711E-03  -1.45064935E-03  -1.39692170E-03  -1.34319393E-03  -1.28946616E-03  -1.23573840E-03  -1.18201063E-03  -1.12828286E-03  -1.07455510E-03  -1.02082733E-03  -9.67099622E-04  -9.13371856E-04  -8.59644089E-04  -8.05916323E-04  -7.52188556E-04  -6.98460848E-04  -6.44733082E-04  -5.91005315E-04  -5.37277549E-04  -4.83549811E-04  -4.29822045E-04  -3.76094278E-04  -3.22366541E-04  -2.68638774E-04  -2.14911022E-04  -1.61183270E-04  -1.07455511E-04  -5.37277556E-05   0.00000000       5.37277556E-05   1.07455511E-04   1.61183270E-04   2.14911022E-04   2.68638774E-04   3.22366541E-04   3.76094278E-04   4.29822045E-04   4.83549811E-04   5.37277549E-04   5.91005315E-04   6.44733082E-04   6.98460848E-04   7.52188556E-04   8.05916323E-04   8.59644089E-04   9.13371856E-04   9.67099622E-04   1.02082733E-03   1.07455510E-03   1.12828286E-03   1.18201063E-03   1.23573840E-03   1.28946616E-03   1.34319393E-03   1.39692170E-03   1.45064935E-03   1.50437711E-03   1.55810488E-03   1.61183265E-03   1.66556041E-03   1.71928818E-03   1.77301595E-03   1.82674371E-03   1.88047148E-03   1.93419924E-03   1.98792689E-03   2.04165466E-03   2.09538243E-03   2.14911019E-03   2.20283796E-03   2.25656573E-03   2.31029349E-03   2.36402126E-03   2.41774903E-03   2.47147679E-03   2.52520456E-03   2.57893233E-03   2.63266009E-03   2.68638786E-03   2.74011563E-03   2.79384339E-03   2.84757116E-03   2.90129869E-03   2.95502646E-03   3.00875423E-03   3.06248199E-03   3.11620976E-03   3.16993752E-03   3.22366529E-03   3.27739306E-03   3.33112082E-03
    </DataArray>
    <DataArray type="Float32" Name="Y_COORDINATES" NumberOfComponents="1" format="ascii">
  -4.56685928E-04  -4.02958161E-04  -3.49230424E-04  -2.95502658E-04  -2.41774906E-04  -1.88047139E-04  -1.34319387E-04  -8.05916352E-05  -2.68638778E-05   2.68638778E-05   8.05916352E-05   1.34319387E-04   1.88047139E-04   2.41774906E-04   2.95502658E-04   3.49230424E-04   4.02958161E-04   4.56685928E-04
    </DataArray>
    <DataArray type="Float32" Name="Z_COORDINATES" NumberOfComponents="1" format="ascii">
  -4.56685928E-04  -4.02958161E-04  -3.49230424E-04  -2.95502658E-04  -2.41774906E-04  -1.88047139E-04  -1.34319387E-04  -8.05916352E-05  -2.68638778E-05   2.68638778E-05   8.05916352E-05   1.34319387E-04   1.88047139E-04   2.41774906E-04   2.95502658E-04   3.49230424E-04   4.02958161E-04   4.56685928E-04
    </DataArray>
   </Coordinates>
   <PointData>
         <DataArray type="Float32" Name="Intensity" NumberOfComponents="1" format="ascii">
   2.06970859       2.30962276       2.58007765       2.88184929       3.21861243       3.59474444       4.00161123       4.38157511       4.61286211       4.61156797       4.44984865       4.29407310       4.21809912       4.17476082       4.12578297       4.07578897       4.02693796       3.97059107       3.90114331       3.81883812       3.72462440       3.61898088       3.50633812       3.39590120       3.29453611       3.20054674       3.11027575       3.02613735       2.95147657       2.88536477       2.82664299       2.77596498       2.73310733       2.69688153       2.66656899       2.64152908       2.62111068       2.60499430       2.59253359       2.58284378       2.57553387       2.57030678       2.56662512       2.56420922       2.56288075       2.56222415       2.56206155       2.56241322       2.56299210       2.56361151       2.56439900       2.56521893       2.56589055       2.56653714       2.56711578       2.56748080       2.56775236       2.56792712       2.56787634       2.56772327       2.56749845       2.56707859       2.56660056       2.56613350       2.56555724       2.56503797       2.56473398       2.56452560       2.56458139       2.56520891       2.56639791       2.56830072       2.57134366       2.57572746       2.58169913       2.58977723       2.60028958       2.61361146       2.63058639       2.65186715       2.67775679       2.70884228       2.74577618       2.78930759       2.84054232       2.89962888       2.96596575       3.04070735       3.12466550       3.21448016       3.30784822       3.40846729       3.51791978       3.62920356       3.73315096       3.82550168       3.90589571       3.97342157       4.02786827       4.07485962       4.12288570       4.16963673       4.21069765       4.28444958       4.43763638       4.59645081       4.59552288       4.36346102       3.98398900       3.57823682       3.20335579       2.86777115       2.56704664       2.29749298       2.05832791       1.84997654       1.67242777       1.52453780       1.40398562       1.30757928       2.34617567       2.65092587       2.99368978       3.37689757       3.81164336       4.32145596       4.93611145       5.59813452       6.02493715       5.97257853       5.60078096       5.32074261       5.24357033       5.16132212       5.01139259       4.88582230       4.81854916       4.76461411       4.68087721       4.57113171       4.45038271       4.31354761       4.16207314       4.01720810       3.89394140       3.78249049       3.67043352       3.56407571       3.47239947       3.39240599       3.32087278       3.26027060       3.20987082       3.16675758       3.13107133       3.10218787       3.07844234       3.06005859       3.04647994       3.03588629       3.02790880       3.02257490       3.01894760       3.01664829       3.01578164       3.01559854       3.01573038       3.01660538       3.01773572       3.01862931       3.01981020       3.02108812       3.02195406       3.02282953       3.02369070       3.02411222       3.02445674       3.02474451       3.02459478       3.02436495       3.02410150       3.02342010       3.02271819       3.02208972       3.02109742       3.02020979       3.01968694       3.01900291       3.01858926       3.01900601       3.01984191       3.02137971       3.02441883       3.02891755       3.03515244       3.04402661       3.05562520       3.07028198       3.08969522       3.11449242       3.14445853       3.18107724       3.22501636       3.27627468       3.33760166       3.40956759       3.48986220       3.58173752       3.68787479       3.79923272       3.90990448       4.03248501       4.17637682       4.32624340       4.46099567       4.57946444       4.68686724       4.76833773       4.82026863       4.88595867       5.00969934       5.15666533       5.23574734       5.31055641       5.58771515       5.95552921       6.00485373       5.57741451       4.91654015       4.30360126       3.79542923       3.36208534       2.98006845       2.63832712       2.33443904       2.06908274       1.84271920       1.65433919       1.50126505       1.37950528       2.66434741       3.04438639       3.46847177       3.93785501       4.46682692       5.09029436       5.90470743       6.96978140       7.73926210       7.57931709       6.81255436       6.41929007       6.49829721       6.35264301       5.92647696       5.62193108       5.57279301       5.58022451       5.48146677       5.32707167       5.17419767       4.99498987       4.78964376       4.60075903       4.45731258       4.33734131       4.20229006       4.06327295       3.95431733       3.86418676       3.77593541       3.70626950       3.65273809       3.60016847       3.55837727       3.52901435       3.50138831       3.47992396       3.46749926       3.45667624       3.44725204       3.44275641       3.44006443       3.43739104       3.43738031       3.43857908       3.43870711       3.44001818       3.44240069       3.44356108       3.44484353       3.44696403       3.44824505       3.44907355       3.45025897       3.45102143       3.45133734       3.45153832       3.45146227       3.45127487       3.45069098       3.44966602       3.44901085       3.44803071       3.44620681       3.44520378       3.44451714       3.44265842       3.44179201       3.44233060       3.44195628       3.44265842       3.44617653       3.45001650       3.45554018       3.46590090       3.47800946       3.49178791       3.51434278       3.54328942       3.57410121       3.61686206       3.67039657       3.72508955       3.79552555       3.88432550       3.97501159       4.08426666       4.22305870       4.35704899       4.47574234       4.61875772       4.80717325       5.01056147       5.18707705       5.33733749       5.48867846       5.58432102       5.57485485       5.62365818       5.92740250       6.34920883       6.48973894       6.40858889       6.79944754       7.56080532       7.71652079       6.94664145       5.88348246       5.07134438       4.44979811       3.92234135       3.45423126       3.03127098       2.65221739       2.31974792       2.03581357       1.79995191       1.60911071       1.45824802       3.02849650       3.49954295       4.01931143       4.58394575       5.20374870       5.88047552       6.62882471       7.79693651       9.40337944       8.96463394       7.45453882       7.15016270       7.82993507       7.56827927       6.28783083       5.60773659       5.87951374       6.02005863       5.84699678       5.69237518       5.45344305       5.17500639       4.95652628       4.70252562       4.52827358       4.47064447       4.31479454       4.09292221       4.00066900       3.93412757       3.79786134       3.73583341       3.71460676       3.63004375       3.58220053       3.58166337       3.54107761       3.50920510       3.51781011       3.50714087       3.48624969       3.49274015       3.49604273       3.48448825       3.48908806       3.49818540       3.49260068       3.49356174       3.50279856       3.50211096       3.50062180       3.50681901       3.50928020       3.50728559       3.50925398       3.51236725       3.51159573       3.51017737       3.51155615       3.51255965       3.50969219       3.50762415       3.50969100       3.50781417       3.50178146       3.50314498       3.50466061       3.49616098       3.49497795       3.50140071       3.49379706       3.48919034       3.50132942       3.50028062       3.49451709       3.51543617       3.52851725       3.52169108       3.55333686       3.59623003       3.59946132       3.64669180       3.73271704       3.75682163       3.81800652       3.95491028       4.02440262       4.11619139       4.33733845       4.49363947       4.54837799       4.72102833       4.97849894       5.19589567       5.46836901       5.70604610       5.85830021       6.02383232       5.88130283       5.61489010       6.29639959       7.56990337       7.82305861       7.14114714       7.44594097       8.94943047       9.38100624       7.77339268       6.60701561       5.86107397       5.18605900       4.56765795       4.00431490       3.48578238       3.01588535       2.60223556       2.24972057       1.95853937       1.72470438       1.54140139       3.44799495       4.04274845       4.69491482       5.38670111       6.08934212       6.81951189       7.55190754       8.15485001       11.4332190       10.1798248       7.78874207       8.30468273       9.83238888       9.80437469       7.55408669       6.48589134       7.11297083       7.33481121       7.13800812       6.92014313       6.52736330       6.20265913       5.86873770       5.44337034       5.32265663       5.27575636       4.97305441       4.74617290       4.65700674       4.50263929       4.36534214       4.32660913       4.26194525       4.16040897       4.13099480       4.11683559       4.06026268       4.04120350       4.05276537       4.03034067       4.01380873       4.03029060       4.02702951       4.01267815       4.02998161       4.03824902       4.02427769       4.03665733       4.04986382       4.03785181       4.04476881       4.05848598       4.04885912       4.05156803       4.06331444       4.05483913       4.05504179       4.06485987       4.05589676       4.05422974       4.06344318       4.05285883       4.04866600       4.05893326       4.04693651       4.03868294       4.05112553       4.04034901       4.02713060       4.04111433       4.03589153       4.01883316       4.03271055       4.03927326       4.02477503       4.04042530       4.06528425       4.05750465       4.07636976       4.13412857       4.15298939       4.18330765       4.28415108       4.35258389       4.39322996       4.52862978       4.68612766       4.77846289       5.00163031       5.30323744       5.34907627       5.46531916       5.89443159       6.22944546       6.54397583       6.93231010       7.14900923       7.33370876       7.10619783       6.49115992       7.55922174       9.79740429       9.81658363       8.28837204       7.78141832       10.1674404       11.4048662       8.12838364       7.53093004       6.80103588       6.07087469       5.36924028       4.67880535       4.02809858       3.43476915       2.91629267       2.48013020       2.12488079       1.84334671       1.62523651       3.93352604       4.72328520       5.60744619       6.47790670       7.35931396       8.72545147       12.3357639       10.2597418       9.24135494       8.40040970       8.28590965       8.42082882       8.26477814       7.95822048       8.30025482       8.19565392       7.52245188       7.41884518       7.30069113       7.04572821       7.00209379       6.67458582       6.24451971       6.16390896       5.95700979       5.57389307       5.45648766       5.40830135       5.12356472       4.92444563       4.94617224       4.81857634       4.63045740       4.64137697       4.61431932       4.48114729       4.47412205       4.50044632       4.41933489       4.39410496       4.43874454       4.40437889       4.37365150       4.41157198       4.40659142       4.37912512       4.40234947       4.41461849       4.39576006       4.40241766       4.42011929       4.41243601       4.40693855       4.42129564       4.42431211       4.41333866       4.41835642       4.42839622       4.41931581       4.41338587       4.42439127       4.42289925       4.40851164       4.41324282       4.42235756       4.40615034       4.39851904       4.41791391       4.40880871       4.38541508       4.41203022       4.42134857       4.38509178       4.41357183       4.45216846       4.41169453       4.43435192       4.51814604       4.49785662       4.50290060       4.63612652       4.67003632       4.65882969       4.84397984       4.97659636       4.95572901       5.15021133       5.43732882       5.48612165       5.59626865       5.97873783       6.18828917       6.25966311       6.68330812       7.01498652       7.04933691       7.29303455       7.41815329       7.51849842       8.17760277       8.28293514       7.94278383       8.24487305       8.40730953       8.27606678       8.38622093       9.21477413       10.2290707       12.3091860       8.70462132       7.33938980       6.45861101       5.58960629       4.70741844       3.91955328       3.25677752       2.71767545       2.29008102       1.95798743       1.70460165       4.46916246       5.55738306       6.84624100       7.98721695       9.61084461       13.6089859       10.4969921       8.30322742       8.49181175       7.66333818       8.35925865       8.87761021       7.88285589       7.66114187       8.62779808       8.69996452       8.29433250       8.50405121       8.47475433       8.21343803       8.20874786       8.00686455       7.65066051       7.53191805       7.33608818       7.02879524       6.86318827       6.70517111       6.49791241       6.32277441       6.19959736       6.09021330       5.95818043       5.87169981       5.81681252       5.72751522       5.67650223       5.66175413       5.60798836       5.57398129       5.57861233       5.55451775       5.53222895       5.54271173       5.53742409       5.52194071       5.53067827       5.53681135       5.52747345       5.53025341       5.54044533       5.53752708       5.53434229       5.54289722       5.54592037       5.53953028       5.54253292       5.54917002       5.54352808       5.53996325       5.54669714       5.54515791       5.53665209       5.53965616       5.54424191       5.53515816       5.53200340       5.54282236       5.53905201       5.53026724       5.54676867       5.55553007       5.54584455       5.56847000       5.59663582       5.59408855       5.62787342       5.68544340       5.70322371       5.75343466       5.84560442       5.90422535       5.98930073       6.12171793       6.23380041       6.35563183       6.52922344       6.73667336       6.89207649       7.05271387       7.35836124       7.55213499       7.66232586       8.01432323       8.21382141       8.20774269       8.46158028       8.48951244       8.27504730       8.67207241       8.59762287       7.63015890       7.85232401       8.85956001       8.33897495       7.64171696       8.48557281       8.29323673       10.4789047       13.5730820       9.58552074       7.96567774       6.82629728       5.54015207       4.45442915       3.60159302       2.94343662       2.44027686       2.05909634       1.77312756       4.96776485       6.39771080       8.16403389       9.94272709       13.8081293       11.7803507       5.36639547       9.66526031       11.2485456       7.82491302       8.63584042       7.13180733       6.00330019       7.10205460       8.06487656       7.19871378       7.56451845       8.33234215       7.78790474       8.19602203       8.43579769       7.85296869       7.85355568       7.86161613       7.46316195       7.26820660       7.32885313       7.06099033       6.75618601       6.73595428       6.56746197       6.42077255       6.36882019       6.22397614       6.15276337       6.09638262       6.01825619       5.99917984       5.95132923       5.90435743       5.89960861       5.87895918       5.85563660       5.85258245       5.84918928       5.83631659       5.83337021       5.84082890       5.83427334       5.82982349       5.84008265       5.83840847       5.83208418       5.84038496       5.84384394       5.83663368       5.83924389       5.84596109       5.84053516       5.83713865       5.84468842       5.84321785       5.83478642       5.84065914       5.84466696       5.83534956       5.83894062       5.84765625       5.84232044       5.84477997       5.85920238       5.86567163       5.86911154       5.89310455       5.91739893       5.92348671       5.97085094       6.02246857       6.04209566       6.12058163       6.18128777       6.25209999       6.39747381       6.45152521       6.59508324       6.76468658       6.78678417       7.08907604       7.35312891       7.28688765       7.48217392       7.87979460       7.86325264       7.85756969       8.43899345       8.18985558       7.76917171       8.31581497       7.54807997       7.17380762       8.04098415       7.06932878       5.96997595       7.13248825       8.62291527       7.79108191       11.2577505       9.66454601       5.33526468       11.7507572       13.7751045       9.91923904       8.14251518       6.37940693       4.95244455       3.89875627       3.12653637       2.55706930       2.13554668       1.82397258       5.27947950       6.94862938       9.05267429       11.0332365       12.8607740       7.76447821       5.31102848       14.4334583       8.26586914       6.85157108       6.78903055       5.24992752       5.66719198       6.68296623       5.44638395       5.27588129       5.88470984       5.31895447       5.06651354       5.52955866       5.07221270       4.59200573       5.02185345       4.70336199       4.19898701       4.49165106       4.35382938       3.91367173       3.98839879       4.00204563       3.71377325       3.67902470       3.75308275       3.56930971       3.47991991       3.57462597       3.50203586       3.39586425       3.45595622       3.46299648       3.37341905       3.39028192       3.44179893       3.38375831       3.36144423       3.42306995       3.40374327       3.35975981       3.40584421       3.41980529       3.37315702       3.39121556       3.42611957       3.39277935       3.38203454       3.42173409       3.41120720       3.37958646       3.40870547       3.42370915       3.38433480       3.39084220       3.42703009       3.39549088       3.37317777       3.41989255       3.41157532       3.36305237       3.40406919       3.42970800       3.36898899       3.38624406       3.44901347       3.40227675       3.38034534       3.47080183       3.47179937       3.40951896       3.51111174       3.59248686       3.50053048       3.58085871       3.77160811       3.70486498       3.72821259       4.01811934       4.01508570       3.93187571       4.36684513       4.51423216       4.21558762       4.71123791       5.03949451       4.60407972       5.07515669       5.53975201       5.06855297       5.31805515       5.88939428       5.27250481       5.44626379       6.68499517       5.66422796       5.25108242       6.79907799       6.85229349       8.25376034       14.4209652       5.27057743       7.74910736       12.8351717       11.0088367       9.03032303       6.92978144       5.26385832       4.07524395       3.23076439       2.62160325       2.17696619       1.85116184       5.27947903       6.94862938       9.05267334       11.0332355       12.8607731       7.76447868       5.31102800       14.4334612       8.26586723       6.85156822       6.78903341       5.24992418       5.66719151       6.68296289       5.44638300       5.27587748       5.88471270       5.31895113       5.06650925       5.52955770       5.07220936       4.59200954       5.02184868       4.70335627       4.19898033       4.49164486       4.35382652       3.91366744       3.98839712       4.00204659       3.71377206       3.67901397       3.75307345       3.56930447       3.47991419       3.57462430       3.50203276       3.39585996       3.45595074       3.46299314       3.37341928       3.39027810       3.44179535       3.38375783       3.36144114       3.42306471       3.40373683       3.35975718       3.40584135       3.41980314       3.37315774       3.39121413       3.42611670       3.39277315       3.38203478       3.42173290       3.41120267       3.37958193       3.40870190       3.42370582       3.38433051       3.39083862       3.42702556       3.39548874       3.37317824       3.41989589       3.41157031       3.36305308       3.40406466       3.42970157       3.36898661       3.38624573       3.44901085       3.40227580       3.38034368       3.47080207       3.47179747       3.40951371       3.51111031       3.59248829       3.50053000       3.58085847       3.77160573       3.70486522       3.72820687       4.01812029       4.01508617       3.93187284       4.36684465       4.51423311       4.21558809       4.71124077       5.03949594       4.60407972       5.07515287       5.53974724       5.06855202       5.31805420       5.88939619       5.27250671       5.44626856       6.68499184       5.66422892       5.25108337       6.79907846       6.85229969       8.25375843       14.4209642       5.27057743       7.74910641       12.8351698       11.0088367       9.03032303       6.92978144       5.26385832       4.07524395       3.23076463       2.62160325       2.17696619       1.85116196       4.96776485       6.39771080       8.16403198       9.94272709       13.8081284       11.7803488       5.36639500       9.66526127       11.2485495       7.82491779       8.63584614       7.13181019       6.00330257       7.10205173       8.06487274       7.19871378       7.56451941       8.33234501       7.78790569       8.19602489       8.43580532       7.85296583       7.85356188       7.86162090       7.46316528       7.26820946       7.32885265       7.06099081       6.75619030       6.73594999       6.56746531       6.42077446       6.36882305       6.22398472       6.15277052       6.09638739       6.01826000       5.99918222       5.95133781       5.90436029       5.89961195       5.87896776       5.85564184       5.85258579       5.84918642       5.83631706       5.83337593       5.84083700       5.83427715       5.82982349       5.84008741       5.83841085       5.83208990       5.84038925       5.84384394       5.83664179       5.83924627       5.84596586       5.84053755       5.83713818       5.84469318       5.84321976       5.83479452       5.84066105       5.84467363       5.83535814       5.83894157       5.84766006       5.84232807       5.84478092       5.85920620       5.86567640       5.86911106       5.89310932       5.91739559       5.92348814       5.97085476       6.02247715       6.04210186       6.12058544       6.18129635       6.25210094       6.39747906       6.45152712       6.59508562       6.76468849       6.78678751       7.08907366       7.35313034       7.28688431       7.48217630       7.87979507       7.86325264       7.85757208       8.43899727       8.18985844       7.76917410       8.31581497       7.54807520       7.17380571       8.04097843       7.06932354       5.96997023       7.13248873       8.62291718       7.79107904       11.2577505       9.66454983       5.33526421       11.7507572       13.7751045       9.91923904       8.14251518       6.37940741       4.95244455       3.89875650       3.12653637       2.55706930       2.13554668       1.82397294       4.46916294       5.55738306       6.84624100       7.98721600       9.61084366       13.6089859       10.4969912       8.30322647       8.49181175       7.66333866       8.35925865       8.87761021       7.88285637       7.66114235       8.62779999       8.69996452       8.29433250       8.50405312       8.47475433       8.21343708       8.20874882       8.00686455       7.65066051       7.53191805       7.33608818       7.02879572       6.86318874       6.70517206       6.49791384       6.32277584       6.19959784       6.09021378       5.95818138       5.87170076       5.81681204       5.72751522       5.67650270       5.66175556       5.60798931       5.57398272       5.57861280       5.55451822       5.53222990       5.54271221       5.53742409       5.52194023       5.53067875       5.53681183       5.52747440       5.53025389       5.54044533       5.53752708       5.53434277       5.54289770       5.54592037       5.53953028       5.54253387       5.54917049       5.54352808       5.53996420       5.54669809       5.54515934       5.53665304       5.53965759       5.54424191       5.53515816       5.53200340       5.54282284       5.53905296       5.53026819       5.54676914       5.55553102       5.54584551       5.56847048       5.59663677       5.59408903       5.62787342       5.68544436       5.70322371       5.75343561       5.84560442       5.90422535       5.98930120       6.12171841       6.23380041       6.35563183       6.52922392       6.73667431       6.89207697       7.05271387       7.35836172       7.55213594       7.66232681       8.01432228       8.21382141       8.20774364       8.46157932       8.48951340       8.27504826       8.67207336       8.59762192       7.63015938       7.85232449       8.85956001       8.33897495       7.64171553       8.48557377       8.29323673       10.4789047       13.5730839       9.58551979       7.96567822       6.82629728       5.54015207       4.45442963       3.60159349       2.94343662       2.44027710       2.05909634       1.77312768       3.93352556       4.72328424       5.60744572       6.47790575       7.35931349       8.72545147       12.3357639       10.2597427       9.24135494       8.40040874       8.28590965       8.42082977       8.26477909       7.95822096       8.30025578       8.19565487       7.52245283       7.41884613       7.30069160       7.04572773       7.00209522       6.67458630       6.24452066       6.16390848       5.95701027       5.57389307       5.45648861       5.40830183       5.12356567       4.92444658       4.94617271       4.81857681       4.63045788       4.64137745       4.61431980       4.48114681       4.47412300       4.50044775       4.41933537       4.39410591       4.43874502       4.40437889       4.37365198       4.41157246       4.40659142       4.37912512       4.40234947       4.41461945       4.39576101       4.40241766       4.42011976       4.41243649       4.40693903       4.42129612       4.42431211       4.41333914       4.41835737       4.42839670       4.41931677       4.41338634       4.42439175       4.42290020       4.40851259       4.41324329       4.42235756       4.40614939       4.39851856       4.41791439       4.40880966       4.38541555       4.41203070       4.42135000       4.38509274       4.41357374       4.45216894       4.41169548       4.43435240       4.51814795       4.49785757       4.50290203       4.63612747       4.67003727       4.65883017       4.84398079       4.97659731       4.95573044       5.15021133       5.43732977       5.48612213       5.59626913       5.97873735       6.18829012       6.25966454       6.68330765       7.01498699       7.04933834       7.29303598       7.41815376       7.51850080       8.17760277       8.28293610       7.94278479       8.24487400       8.40731049       8.27606869       8.38622189       9.21477509       10.2290707       12.3091879       8.70462322       7.33939028       6.45861101       5.58960629       4.70741844       3.91955400       3.25677800       2.71767569       2.29008102       1.95798755       1.70460165       3.44799542       4.04274845       4.69491482       5.38670063       6.08934212       6.81951141       7.55190706       8.15484905       11.4332209       10.1798258       7.78874254       8.30468178       9.83238792