<VTKFile type="RectilinearGrid" version="0.1" format="ascii">
 <RectilinearGrid WholeExtent="1 120 1 18 1 18">
  <Piece Extent="1 120 1 18 1 18">
   <Coordinates>
    <DataArray type="Float32" Name="X_COORDINATES" NumberOfComponents="1" format="ascii">
  -3.06248199E-03  -3.00875423E-03  -2.95502646E-03  -2.90129869E-03  -2.84757116E-03  -2.79384339E-03  -2.74011563E-03  -2.68638786E-03  -2.63266009E-03  -2.57893233E-03  -2.52520456E-03  -2.47147679E-03  -2.41774903E-03  -2.36402126E-03  -2.31029349E-03  -2.25656573E-03  -2.20283796E-03  -2.14911019E-03  -2.09538243E-03  -2.04165466E-03  -1.98792689E-03  -1.93419924E-03  -1.88047148E-03  -1.82674371E-03  -1.77301595E-03  -1.71928818E-03  -1.66556041E-03  -1.61183265E-03  -1.55810488E-03  -1.50437711E-03  -1.45064935E-03  -1.39692170E-03  -1.34319393E-03  -1.28946616E-03  -1.23573840E-03  -1.18201063E-03  -1.12828286E-03  -1.07455510E-03  -1.02082733E-03  -9.67099622E-04  -9.13371856E-04  -8.59644089E-04  -8.05916323E-04  -7.52188556E-04  -6.98460848E-04  -6.44733082E-04  -5.91005315E-04  -5.37277549E-04  -4.83549811E-04  -4.29822045E-04  -3.76094278E-04  -3.22366541E-04  -2.68638774E-04  -2.14911022E-04  -1.61183270E-04  -1.07455511E-04  -5.37277556E-05   0.00000000       5.37277556E-05   1.07455511E-04   1.61183270E-04   2.14911022E-04   2.68638774E-04   3.22366541E-04   3.76094278E-04   4.29822045E-04   4.83549811E-04   5.37277549E-04   5.91005315E-04   6.44733082E-04   6.98460848E-04   7.52188556E-04   8.05916323E-04   8.59644089E-04   9.13371856E-04   9.67099622E-04   1.02082733E-03   1.07455510E-03   1.12828286E-03   1.18201063E-03   1.23573840E-03   1.28946616E-03   1.34319393E-03   1.39692170E-03   1.45064935E-03   1.50437711E-03   1.55810488E-03   1.61183265E-03   1.66556041E-03   1.71928818E-03   1.77301595E-03   1.82674371E-03   1.88047148E-03   1.93419924E-03   1.98792689E-03   2.04165466E-03   2.09538243E-03   2.14911019E-03   2.20283796E-03   2.25656573E-03   2.31029349E-03   2.36402126E-03   2.41774903E-03   2.47147679E-03   2.52520456E-03   2.57893233E-03   2.63266009E-03   2.68638786E-03   2.74011563E-03   2.79384339E-03   2.84757116E-03   2.90129869E-03   2.95502646E-03   3.00875423E-03   3.06248199E-03   3.11620976E-03   3.16993752E-03   3.22366529E-03   3.27739306E-03   3.33112082E-03
    </DataArray>
    <DataArray type="Float32" Name="Y_COORDINATES" NumberOfComponents="1" format="ascii">
  -4.56685928E-04  -4.02958161E-04  -3.49230424E-04  -2.95502658E-04  -2.41774906E-04  -1.88047139E-04  -1.34319387E-04  -8.05916352E-05  -2.68638778E-05   2.68638778E-05   8.05916352E-05   1.34319387E-04   1.88047139E-04   2.41774906E-04   2.95502658E-04   3.49230424E-04   4.02958161E-04   4.56685928E-04
    </DataArray>
    <DataArray type="Float32" Name="Z_COORDINATES" NumberOfComponents="1" format="ascii">
  -4.56685928E-04  -4.02958161E-04  -3.49230424E-04  -2.95502658E-04  -2.41774906E-04  -1.88047139E-04  -1.34319387E-04  -8.05916352E-05  -2.68638778E-05   2.68638778E-05   8.05916352E-05   1.34319387E-04   1.88047139E-04   2.41774906E-04   2.95502658E-04   3.49230424E-04   4.02958161E-04   4.56685928E-04
    </DataArray>
   </Coordinates>
   <PointData>
         <DataArray type="Float32" Name="Intensity" NumberOfComponents="1" format="ascii">
   2.65167832       2.97302890       3.31874037       3.68312359       4.06112480       4.44541025       4.80859041       5.06014204       5.06027031       4.77948523       4.38289118       4.05466080       3.82622457       3.65926147       3.54421163       3.46821666       3.40205908       3.32816386       3.24488568       3.15638208       3.06873894       2.98815656       2.91708970       2.85112095       2.78507876       2.72138309       2.66422892       2.61238694       2.56427193       2.52086735       2.48227286       2.44796729       2.41849089       2.39374542       2.37258387       2.35472250       2.34007168       2.32780719       2.31779742       2.31014633       2.30398321       2.29887509       2.29514599       2.29244661       2.29026723       2.28875971       2.28784800       2.28713202       2.28666568       2.28653860       2.28648472       2.28645635       2.28657842       2.28671741       2.28680825       2.28694487       2.28707290       2.28715467       2.28724313       2.28729582       2.28733826       2.28743410       2.28750348       2.28759480       2.28784895       2.28816342       2.28856730       2.28932309       2.29037189       2.29164696       2.29353070       2.29613018       2.29929924       2.30351305       2.30913544       2.31586218       2.32410455       2.33473182       2.34765673       2.36297965       2.38150430       2.40335274       2.42881489       2.45897865       2.49391413       2.53310442       2.57703400       2.62555695       2.67776537       2.73525000       2.79909754       2.86507416       2.93088222       3.00173736       3.08191371       3.16878748       3.25608635       3.33774233       3.40973234       3.47385836       3.54765797       3.66011095       3.82390261       4.04872799       4.37308884       4.76578283       5.04340124       5.04164362       4.78998041       4.42757607       4.04443312       3.66768837       3.30454683       2.95997953       2.63961124       2.34879875       2.09140921       1.86920428       1.68182278       1.52715778       3.03945971       3.44958973       3.89285445       4.36326265       4.86069679       5.39683294       5.98417187       6.49931622       6.58925915       6.11889219       5.46834612       5.01802158       4.68385410       4.35145330       4.13895702       4.08086205       4.05031300       3.97551560       3.86568284       3.74189711       3.62426043       3.52231646       3.43579817       3.35493469       3.26639652       3.17826366       3.10552979       3.04323101       2.98393917       2.93040943       2.88265824       2.83936071       2.80432391       2.77647138       2.75065494       2.72903800       2.71318245       2.69881773       2.68662143       2.67911816       2.67284846       2.66636539       2.66255903       2.66060305       2.65807295       2.65634155       2.65621209       2.65571666       2.65489936       2.65522933       2.65575647       2.65552950       2.65565610       2.65631652       2.65647960       2.65636444       2.65670395       2.65707302       2.65691757       2.65675616       2.65706229       2.65714931       2.65672946       2.65680742       2.65731502       2.65712953       2.65708542       2.65822506       2.65917087       2.65972471       2.66184473       2.66491342       2.66748357       2.67182040       2.67890549       2.68591714       2.69411302       2.70700884       2.72224164       2.73894501       2.76128960       2.78792095       2.81668687       2.85255504       2.89661431       2.94510984       2.99921703       3.05887437       3.12162042       3.19492221       3.28327942       3.37147856       3.45186543       3.53815699       3.63972259       3.75641799       3.87881064       3.98659182       4.05886650       4.08746958       4.14421558       4.35446787       4.68288612       5.01233578       5.45794773       6.10347605       6.56961536       6.47784424       5.96307278       5.37704134       4.84242439       4.34652901       3.87761188       3.43572783       3.02680230       2.65771818       2.33340502       2.05573225       1.82360232       1.63364625       3.48102665       3.99827838       4.55657911       5.14390516       5.75554752       6.40983248       7.20180368       8.09561634       8.35100555       7.54394674       6.57006788       6.18247938       5.75542593       4.99809551       4.54008913       4.61153364       4.72204781       4.65245056       4.46833277       4.27138805       4.12596321       4.00533724       3.90517187       3.82389474       3.70412874       3.56909513       3.48578215       3.42453980       3.34800053       3.28347468       3.23081756       3.17161036       3.13115454       3.10874414       3.07469463       3.04566932       3.03419852       3.01753259       2.99985051       2.99566174       2.99117064       2.98061633       2.97682285       2.97819066       2.97463346       2.97119474       2.97362971       2.97412276       2.97105050       2.97233725       2.97517109       2.97356868       2.97284770       2.97558880       2.97591591       2.97411966       2.97525692       2.97706056       2.97559643       2.97450209       2.97646117       2.97659540       2.97409010       2.97485328       2.97689581       2.97457910       2.97340918       2.97683001       2.97708559       2.97503924       2.97873139       2.98309040       2.98255658       2.98675323       2.99799466       3.00358534       3.00843787       3.02673244       3.04474211       3.05727553       3.08677936       3.12192369       3.14553380       3.18665743       3.24699450       3.30081820       3.36552930       3.44217253       3.50420094       3.58842611       3.72390604       3.84307933       3.92296147       4.02272701       4.14365053       4.28817081       4.48361683       4.66526699       4.73077154       4.61797142       4.54774427       5.00519896       5.75672007       6.17697620       6.55969954       7.52777815       8.32909393       8.07151222       7.17855930       6.38827467       5.73573446       5.12581539       4.54018641       3.98350215       3.46769905       3.00429487       2.60058069       2.25852561       1.97562850       1.74645710       3.97743750       4.62828732       5.32982016       6.05682373       6.78364277       7.47059298       8.09437656       8.94009686       9.66045761       8.14840412       6.88812685       7.33889627       6.73584890       4.89808512       3.85597849       4.46099997       5.00398397       4.87422562       4.31262159       4.01253891       3.98350477       3.79893732       3.70539021       3.76183152       3.55676675       3.29254627       3.30138397       3.30077457       3.14827585       3.08998322       3.08415127       2.97434020       2.92949486       2.96512032       2.90553594       2.85054207       2.87536216       2.85764337       2.81969213       2.83197236       2.83664203       2.81288123       2.80903268       2.82246041       2.81646848       2.80545855       2.81582975       2.81986594       2.80802441       2.81243968       2.82200980       2.81442070       2.81192160       2.82058859       2.81965923       2.81402946       2.81749034       2.82189894       2.81787014       2.81434679       2.81992030       2.82150245       2.81315112       2.81520987       2.82337594       2.81466675       2.80976152       2.82186913       2.81918645       2.80874300       2.81949759       2.82680345       2.81429100       2.81786084       2.84238648       2.83951569       2.82706690       2.86480308       2.88549733       2.86161041       2.91509986       2.97753239       2.94367957       2.98619819       3.09914064       3.10913706       3.16435742       3.31563210       3.32017589       3.31220102       3.57624793       3.78400230       3.72513890       3.81400347       4.00326490       4.03671455       4.33348942       4.89290524       5.01853609       4.46810770       3.86810017       4.91952801       6.74710464       7.33685637       6.88358259       8.13953114       9.64168453       8.91643810       8.07044697       7.44780684       6.76235580       6.03725243       5.31211185       4.61245346       3.96334195       3.38467073       2.88709140       2.47163129       2.13273573       1.86147034       4.52594948       5.35317183       6.25014114       7.16892719       8.01956367       8.82582760       9.42192364       9.00156975       10.6337767       8.82176685       6.95540094       9.02317429       8.54025269       6.14708519       3.99975085       4.94638205       5.95901060       5.51859760       4.70561409       4.41016483       4.10881710       3.94895267       4.00118685       3.98969507       3.70843863       3.49341750       3.47789741       3.42012787       3.33134317       3.27962351       3.18694091       3.11610556       3.10838485       3.09392595       3.03849912       3.01170731       3.01988363       2.98991251       2.96606731       2.98901558       2.97833109       2.94846344       2.96682239       2.97477651       2.95044994       2.95930099       2.97519159       2.95738339       2.95607090       2.97425246       2.96584034       2.95830560       2.97256827       2.97038651       2.96147490       2.97151208       2.97215390       2.96342754       2.97122192       2.97268701       2.96235585       2.96981931       2.97397709       2.96025062       2.96586394       2.97582603       2.95924616       2.95851755       2.97716546       2.96387887       2.95331144       2.97739100       2.97263122       2.95395136       2.98286533       2.99611568       2.97405672       2.99698544       3.02874064       3.02295780       3.04984522       3.10513926       3.12160730       3.13070536       3.20185542       3.29839253       3.35116243       3.43621564       3.49624491       3.51574516       3.73203921       4.01472473       4.02337456       3.96772838       4.13231993       4.43972635       4.73253965       5.54003048       5.97625589       4.95512295       4.00795555       6.16209030       8.54681492       9.01773739       6.95549726       8.81792545       10.6136408       8.97802258       9.39838600       8.80270195       7.99669695       7.14755058       6.23082876       5.33608675       4.51098537       3.78899813       3.18194675       2.68550014       2.28745651       1.97314131       5.10730124       6.17689800       7.35916519       8.46854973       9.56078815       11.1732512       14.9410696       10.9903440       9.69820976       9.55920982       9.10421753       8.19070721       8.21154594       8.28518772       8.37647820       8.16612530       7.01083422       7.04289246       7.63791800       6.94749928       6.41665268       6.65871096       6.22311163       5.72525883       5.89086914       5.77806664       5.34537125       5.27609253       5.29890680       5.05869532       4.91183853       4.97345591       4.87054873       4.69931602       4.73936462       4.74671745       4.61240625       4.60115051       4.66404200       4.58925676       4.53171635       4.60275793       4.59055328       4.51796675       4.56413126       4.58908319       4.52812815       4.54538393       4.58418036       4.54633141       4.54131746       4.57448292       4.55964947       4.54811001       4.56653786       4.56316853       4.55751896       4.56393957       4.55851603       4.56312180       4.56820536       4.55080986       4.56036329       4.57751751       4.54663420       4.54849148       4.58833456       4.55392361       4.53305197       4.59443855       4.57607651       4.52763891       4.59807396       4.61734533       4.54741383       4.60111141       4.68102884       4.62307072       4.63048697       4.76571226       4.76615238       4.72536993       4.89256048       5.00190592       4.94404173       5.08427715       5.32530260       5.31016254       5.37522173       5.79965925       5.91763926       5.75289059       6.23883820       6.67667389       6.43634272       6.95020437       7.63610125       7.04308605       7.00204992       8.15402126       8.35782433       8.25305748       8.18427944       8.17451572       9.08535671       9.53657722       9.66895676       10.9630156       14.9098482       11.1475954       9.53600311       8.44521904       7.33787632       6.15837049       5.09141874       4.19442654       3.46622276       2.88625455       2.43005633       2.07473660       5.65388680       7.01196861       8.57512188       9.83586693       11.6198969       16.1549988       11.3536234       8.27095127       10.5207014       10.0891495       9.41917706       9.19047070       9.21024990       9.39729023       10.0497036       10.1641769       9.33769989       9.50884724       9.80299854       9.25945663       8.81179142       8.83981991       8.62484169       8.13353252       8.08630943       8.05911541       7.64539909       7.44334984       7.45117712       7.25281096       7.02149057       6.99736691       6.95551014       6.76854944       6.71393776       6.74833775       6.63038158       6.55779028       6.60891056       6.55778170       6.49225664       6.52631807       6.51354313       6.47370911       6.49098110       6.48912144       6.46966267       6.48069620       6.48056984       6.46948338       6.47993088       6.48162699       6.47023487       6.47953701       6.48647118       6.47339153       6.47683287       6.48908901       6.47843742       6.47403240       6.48779583       6.48299122       6.47344971       6.48501253       6.48535872       6.47542953       6.48697901       6.48906946       6.47855425       6.49914074       6.50404978       6.48653984       6.52720404       6.54544783       6.51100397       6.57544231       6.63441610       6.58444405       6.65266943       6.77914143       6.74979448       6.79711485       6.98887730       7.04005575       7.05863047       7.28694963       7.49420023       7.48635530       7.67769241       8.09585857       8.12748051       8.15853691       8.64809227       8.87047386       8.82888031       9.26435375       9.80670357       9.50081921       9.30975819       10.1326523       10.0150661       9.34025192       9.14871311       9.15480423       9.37944603       10.0539541       10.5142565       8.26267910       11.3318930       16.1132431       11.5909433       9.81111431       8.55187893       6.99207449       5.63720417       4.55655336       3.71214986       3.05654335       2.54946232       2.15901780       6.04575205       7.59569550       9.36026573       10.8458195       14.9076548       12.0438318       6.19596004       10.6643858       14.8493996       9.55815601       8.22106075       8.89815331       9.83231354       10.7137384       10.6759739       10.9658976       10.7846451       11.3412609       11.9412642       11.0219564       10.7075987       10.8611412       10.3860750       10.0434437       10.0828667       9.98408985       9.44957638       9.26804066       9.35276127       9.01734066       8.81769466       8.77262497       8.62425900       8.52879047       8.44092560       8.39796829       8.32390594       8.23210716       8.25795841       8.21427345       8.14049339       8.16607857       8.14337254       8.11128426       8.12682247       8.10607529       8.10053349       8.11270332       8.09352589       8.09714890       8.10888004       8.09432697       8.09563446       8.10646248       8.10084248       8.09772205       8.10240746       8.10449028       8.10310078       8.09954834       8.10297871       8.10929108       8.10046768       8.09912777       8.11419868       8.10524750       8.10186005       8.12175465       8.11201572       8.11870575       8.14167500       8.12703609       8.16060352       8.18830204       8.16216660       8.23732376       8.28832817       8.26058578       8.35375214       8.43600655       8.47842503       8.56731129       8.66546917       8.81722164       8.86728668       9.06295776       9.39880085       9.31681347       9.49644184       10.0303831       10.1226940       10.0815020       10.4192419       10.8864403       10.7370186       11.0346508       11.9337387       11.3253269       10.7425919       10.9127131       10.6287670       10.6387348       9.73644257       8.84578133       8.18037510       9.51141739       14.8558626       10.6408939       6.14956951       12.0062637       14.8748589       10.8213682       9.33617973       7.57504129       6.02858925       4.81806374       3.88984704       3.17934442       2.63527656       2.21934247       6.22091246       7.79614449       9.41482830       9.77392960       9.89638996       8.08603954       5.60002708       14.5191565       9.00836277       6.15972853       7.38770247       5.40054560       5.79161215       6.44606256       5.01496363       5.15118551       5.37949800       4.97281170       4.72422218       4.70272684       4.56819010       4.13940144       4.19984341       4.37974024       3.83816171       3.74956656       4.05058384       3.60921001       3.42084718       3.74282551       3.49936128       3.21163106       3.43573475       3.44576597       3.16719866       3.22426295       3.34755564       3.18043041       3.13598800       3.24925756       3.19617486       3.12291384       3.17123365       3.19545197       3.15142441       3.13080359       3.17108321       3.18158340       3.13119268       3.14159083       3.19023085       3.15512514       3.12506628       3.17566109       3.18116784       3.13013864       3.14920688       3.19134593       3.15343714       3.12865353       3.17893291       3.18034649       3.12752986       3.15264297       3.19346666       3.14727306       3.13141346       3.18340778       3.17771912       3.13559365       3.15423393       3.20096684       3.18027830       3.13025355       3.20014763       3.26039457       3.15073681       3.18505144       3.35771728       3.24550152       3.17734218       3.45437670       3.45873809       3.23000169       3.50758123       3.76454878       3.44736981       3.61802340       4.06784487       3.77843738       3.85130620       4.39355230       4.22049618       4.15547705       4.58458185       4.71648121       4.73828411       4.98690414       5.38263845       5.15167570       5.02757883       6.44747877       5.77957058       5.40527105       7.40065813       6.16580629       8.98913479       14.5402317       5.54877472       8.05154133       9.87200451       9.75240707       9.39106369       7.77539062       6.20360279       4.94676638       3.98072553       3.24306917       2.67999792       2.25078011       6.22091293       7.79614544       9.41482925       9.77393150       9.89639091       8.08604050       5.60002661       14.5191622       9.00835705       6.15973425       7.38770819       5.40054178       5.79161549       6.44606352       5.01496553       5.15118217       5.37949514       4.97281313       4.72422504       4.70272636       4.56819725       4.13939381       4.19984102       4.37973642       3.83815885       3.74956965       4.05058813       3.60921311       3.42084479       3.74282146       3.49936080       3.21163273       3.43573809       3.44577003       3.16719556       3.22426057       3.34755492       3.18042278       3.13598752       3.24925542       3.19617987       3.12291312       3.17123055       3.19544721       3.15143013       3.13080359       3.17108321       3.18158484       3.13119698       3.14159226       3.19023037       3.15512085       3.12507033       3.17565250       3.18116975       3.13013220       3.14921188       3.19134402       3.15343809       3.12864995       3.17892861       3.18034840       3.12753081       3.15264583       3.19346666       3.14726996       3.13140726       3.18340802       3.17771482       3.13559937       3.15423346       3.20095682       3.18027735       3.13025260       3.20014095       3.26038957       3.15073395       3.18504477       3.35771489       3.24550176       3.17734313       3.45437551       3.45873475       3.22999978       3.50758028       3.76454568       3.44737124       3.61802030       4.06784248       3.77843285       3.85130119       4.39354038       4.22049141       4.15547180       4.58457708       4.71647739       4.73827648       4.98689890       5.38264084       5.15167570       5.02757406       6.44747448       5.77957630       5.40527439       7.40066099       6.16581011       8.98913765       14.5402308       5.54877567       8.05154228       9.87200451       9.75240612       9.39106369       7.77539062       6.20360327       4.94676590       3.98072600       3.24306917       2.67999816       2.25078082       6.04575157       7.59569645       9.36026669       10.8458195       14.9076576       12.0438337       6.19595814       10.6643887       14.8494005       9.55816174       8.22106361       8.89815044       9.83231068       10.7137432       10.6759701       10.9659109       10.7846479       11.3412657       11.9412575       11.0219517       10.7076015       10.8611441       10.3860798       10.0434408       10.0828648       9.98409271       9.44957447       9.26804638       9.35275745       9.01734066       8.81769276       8.77262020       8.62425709       8.52879143       8.44093037       8.39796829       8.32390308       8.23210621       8.25795364       8.21427536       8.14049053       8.16608810       8.14337444       8.11128426       8.12682819       8.10607815       8.10053921       8.11271095       8.09353065       8.09715271       8.10888481       8.09433651       8.09563923       8.10647392       8.10084438       8.09771538       8.10240078       8.10448551       8.10309696       8.09955311       8.10298252       8.10929203       8.10046577       8.09913158       8.11421204       8.10525322       8.10186672       8.12176323       8.11201763       8.11870575       8.14167309       8.12703609       8.16060829       8.18830013       8.16216850       8.23732376       8.28833199       8.26059055       8.35374928       8.43601036       8.47843075       8.56730461       8.66547298       8.81722450       8.86728764       9.06296349       9.39879799       9.31682396       9.49643898       10.0303888       10.1226959       10.0815010       10.4192486       10.8864393       10.7370148       11.0346546       11.9337320       11.3253260       10.7425890       10.9127150       10.6287680       10.6387348       9.73644257       8.84577274       8.18037701       9.51141548       14.8558569       10.6408949       6.14956951       12.0062647       14.8748569       10.8213682       9.33617973       7.57504082       6.02858829       4.81806421       3.88984752       3.17934442       2.63527656       2.21934247       5.65388823       7.01196957       8.57512283       9.83586884       11.6198997       16.1550007       11.3536253       8.27095318       10.5207014       10.0891495       9.41917706       9.19047070       9.21025085       9.39729023       10.0497036       10.1641769       9.33769894       9.50884724       9.80299950       9.25945759       8.81179237       8.83981991       8.62484169       8.13353348       8.08631039       8.05911636       7.64539909       7.44335079       7.45117712       7.25281239       7.02149248       6.99736786       6.95551062       6.76855087       6.71393776       6.74833822       6.63038254       6.55779123       6.60891056       6.55778122       6.49225760       6.52631855       6.51354408       6.47371101       6.49098206       6.48912334       6.46966410       6.48069668       6.48057079       6.46948338       6.47993135       6.48162746       6.47023487       6.47953844       6.48647261       6.47339296       6.47683430       6.48909044       6.47843838       6.47403240       6.48779631       6.48299360       6.47345066       6.48501348       6.48536015       6.47543144       6.48697996       6.48907137       6.47855663       6.49914312       6.50405121       6.48654079       6.52720404       6.54544830       6.51100397       6.57544279       6.63441610       6.58444405       6.65266895       6.77914095       6.74979448       6.79711342       6.98887730       7.04005671       7.05863047       7.28694963       7.49419928       7.48635435       7.67769194       8.09585762       8.12747955       8.15853691       8.64809036       8.87047386       8.82888031       9.26435280       9.80670452       9.50081825       9.30975914       10.1326532       10.0150681       9.34025288       9.14871502       9.15480614       9.37944698       10.0539551       10.5142565       8.26267910       11.3318939       16.1132431       11.5909424       9.81111336       8.55187893       6.99207449       5.63720417       4.55655336       3.71215034       3.05654287       2.54946232       2.15901804       5.10730076       6.17689896       7.35916662       8.46854973       9.56078911       11.1732531       14.9410725       10.9903460       9.69821167       9.55921078       9.10421944       8.19070816       8.21154690       8.28518963       8.37647915       8.16612625       7.01083326       7.04289246       7.63791895       6.94749975       6.41665220       6.65871096       6.22311163       5.72525883       5.89087105       5.77806759       5.34537220       5.27609301       5.29890680       5.05869627       4.91183949       4.97345686       4.87054873       4.69931602       4.73936510       4.74671745       4.61240673       4.60115147       4.66404295       4.58925676       4.53171730       4.60275936       4.59055424       4.51796865       4.56413364       4.58908367       4.52812958       4.54538441       4.58418179       4.54633236       4.54131746       4.57448292       4.55964899       4.54810953       4.56653786       4.56316900       4.55751896       4.56393909       4.55851603       4.56312227       4.56820488       4.55081129       4.56036377       4.57751846       4.54663515       4.54849243       4.58833504       4.55392408       4.53305244       4.59443998       4.57607794       4.52764034       4.59807444       4.61734676       4.54741430       4.60111237       4.68102884       4.62307215       4.63048792       4.76571274       4.76615286       4.72536993       4.89256144       5.00190687       4.94404268       5.08427668       5.32530165       5.31016254       5.37522173       5.79965830       5.91763878       5.75289059       6.23883724       6.67667341       6.43634367       6.95020533       7.63610315       7.04308653       7.00205088       8.15402317       8.35782623       8.25305748       8.18428040       8.17451763       9.08535767       9.53657818       9.66895866       10.9630194       14.9098520       11.1475964       9.53600311       8.44521904       7.33787632       6.15837049       5.09141922       4.19442654       3.46622252       2.88625431       2.43005633       2.07473636       4.52594995       5.35317230       6.25014162       7.16892815       8.01956463       8.82582951       9.42192459       9.00157166       10.6337805       8.82176685       6.95539999       9.02317333       8.54025364