<VTKFile type="RectilinearGrid" version="0.1" format="ascii">
 <RectilinearGrid WholeExtent="1 120 1 18 1 18">
  <Piece Extent="1 120 1 18 1 18">
   <Coordinates>
    <DataArray type="Float32" Name="X_COORDINATES" NumberOfComponents="1" format="ascii">
  -3.06248199E-03  -3.00875423E-03  -2.95502646E-03  -2.90129869E-03  -2.84757116E-03  -2.79384339E-03  -2.74011563E-03  -2.68638786E-03  -2.63266009E-03  -2.57893233E-03  -2.52520456E-03  -2.47147679E-03  -2.41774903E-03  -2.36402126E-03  -2.31029349E-03  -2.25656573E-03  -2.20283796E-03  -2.14911019E-03  -2.09538243E-03  -2.04165466E-03  -1.98792689E-03  -1.93419924E-03  -1.88047148E-03  -1.82674371E-03  -1.77301595E-03  -1.71928818E-03  -1.66556041E-03  -1.61183265E-03  -1.55810488E-03  -1.50437711E-03  -1.45064935E-03  -1.39692170E-03  -1.34319393E-03  -1.28946616E-03  -1.23573840E-03  -1.18201063E-03  -1.12828286E-03  -1.07455510E-03  -1.02082733E-03  -9.67099622E-04  -9.13371856E-04  -8.59644089E-04  -8.05916323E-04  -7.52188556E-04  -6.98460848E-04  -6.44733082E-04  -5.91005315E-04  -5.37277549E-04  -4.83549811E-04  -4.29822045E-04  -3.76094278E-04  -3.22366541E-04  -2.68638774E-04  -2.14911022E-04  -1.61183270E-04  -1.07455511E-04  -5.37277556E-05   0.00000000       5.37277556E-05   1.07455511E-04   1.61183270E-04   2.14911022E-04   2.68638774E-04   3.22366541E-04   3.76094278E-04   4.29822045E-04   4.83549811E-04   5.37277549E-04   5.91005315E-04   6.44733082E-04   6.98460848E-04   7.52188556E-04   8.05916323E-04   8.59644089E-04   9.13371856E-04   9.67099622E-04   1.02082733E-03   1.07455510E-03   1.12828286E-03   1.18201063E-03   1.23573840E-03   1.28946616E-03   1.34319393E-03   1.39692170E-03   1.45064935E-03   1.50437711E-03   1.55810488E-03   1.61183265E-03   1.66556041E-03   1.71928818E-03   1.77301595E-03   1.82674371E-03   1.88047148E-03   1.93419924E-03   1.98792689E-03   2.04165466E-03   2.09538243E-03   2.14911019E-03   2.20283796E-03   2.25656573E-03   2.31029349E-03   2.36402126E-03   2.41774903E-03   2.47147679E-03   2.52520456E-03   2.57893233E-03   2.63266009E-03   2.68638786E-03   2.74011563E-03   2.79384339E-03   2.84757116E-03   2.90129869E-03   2.95502646E-03   3.00875423E-03   3.06248199E-03   3.11620976E-03   3.16993752E-03   3.22366529E-03   3.27739306E-03   3.33112082E-03
    </DataArray>
    <DataArray type="Float32" Name="Y_COORDINATES" NumberOfComponents="1" format="ascii">
  -4.56685928E-04  -4.02958161E-04  -3.49230424E-04  -2.95502658E-04  -2.41774906E-04  -1.88047139E-04  -1.34319387E-04  -8.05916352E-05  -2.68638778E-05   2.68638778E-05   8.05916352E-05   1.34319387E-04   1.88047139E-04   2.41774906E-04   2.95502658E-04   3.49230424E-04   4.02958161E-04   4.56685928E-04
    </DataArray>
    <DataArray type="Float32" Name="Z_COORDINATES" NumberOfComponents="1" format="ascii">
  -4.56685928E-04  -4.02958161E-04  -3.49230424E-04  -2.95502658E-04  -2.41774906E-04  -1.88047139E-04  -1.34319387E-04  -8.05916352E-05  -2.68638778E-05   2.68638778E-05   8.05916352E-05   1.34319387E-04   1.88047139E-04   2.41774906E-04   2.95502658E-04   3.49230424E-04   4.02958161E-04   4.56685928E-04
    </DataArray>
   </Coordinates>
   <PointData>
         <DataArray type="Float32" Name="Intensity" NumberOfComponents="1" format="ascii">
   2.88967347       3.24544168       3.62208843       4.00946999       4.39648056       4.76923132       5.09446716       5.27679205       5.18319130       4.81078291       4.34123755       3.94185352       3.64149833       3.42628098       3.28483129       3.18494248       3.09512019       3.00480175       2.91861033       2.84314823       2.77943468       2.72420955       2.67162085       2.61694145       2.56173706       2.51042557       2.46318984       2.41805673       2.37618637       2.33931065       2.30695128       2.27864122       2.25422740       2.23310494       2.21487546       2.19946218       2.18688774       2.17672253       2.16823101       2.16141033       2.15627456       2.15217209       2.14895892       2.14679098       2.14515519       2.14381671       2.14312053       2.14280772       2.14244604       2.14232731       2.14253402       2.14260459       2.14263320       2.14293051       2.14315224       2.14314580       2.14331293       2.14354300       2.14349151       2.14347339       2.14365268       2.14363313       2.14351630       2.14367914       2.14384913       2.14388323       2.14424062       2.14489555       2.14553213       2.14654684       2.14825106       2.15030789       2.15289807       2.15656590       2.16119909       2.16688800       2.17427254       2.18339086       2.19422245       2.20747304       2.22360468       2.24257088       2.26441073       2.28955340       2.31861448       2.35170889       2.38927674       2.43175530       2.47737288       2.52500057       2.57663155       2.63198304       2.68659139       2.73898983       2.79396296       2.85728359       2.93202043       3.01695156       3.10546684       3.19307899       3.29045010       3.42900729       3.64070630       3.93690896       4.33189154       4.79723549       5.16627264       5.25798321       5.07525730       4.75055599       4.37882042       3.99306083       3.60700154       3.23162222       2.87696886       2.55133080       2.26040959       2.00705981       1.79153502       1.61204183       3.32523394       3.78001523       4.26490259       4.76795769       5.28023767       5.80320406       6.33866501       6.74622679       6.68515396       6.09174728       5.36713839       4.79514599       4.29891348       3.90745091       3.73860073       3.70031953       3.63387537       3.51217866       3.38790774       3.28593040       3.20486712       3.13967228       3.07258749       2.99456429       2.91867924       2.85616708       2.80172467       2.74643612       2.69236326       2.64591217       2.60754561       2.57447100       2.54540396       2.52082801       2.49972725       2.48130322       2.46757364       2.45732212       2.44724560       2.43926811       2.43483424       2.43069005       2.42668319       2.42515779       2.42422414       2.42229581       2.42177057       2.42254734       2.42207837       2.42161942       2.42268205       2.42306113       2.42259860       2.42336988       2.42407203       2.42356420       2.42385411       2.42461109       2.42409611       2.42388892       2.42459869       2.42419505       2.42355824       2.42420077       2.42418218       2.42336726       2.42402148       2.42489576       2.42451882       2.42531872       2.42769623       2.42920327       2.43114376       2.43562484       2.44049478       2.44558430       2.45412517       2.46499085       2.47607756       2.49050617       2.50980306       2.53188467       2.55723810       2.58708882       2.62111044       2.66039920       2.70770311       2.76247668       2.81816530       2.87300396       2.93613386       3.01232386       3.09014034       3.15694976       3.22177672       3.30240250       3.40389657       3.52676225       3.64598346       3.70992732       3.74627113       3.91311789       4.30085802       4.79161167       5.35781431       6.07691622       6.66582394       6.72457743       6.31683493       5.78226137       5.26061916       4.74989271       4.24846935       3.76515365       3.31176949       2.89883208       2.53335476       2.21826482       1.95289063       1.73395216       3.81881046       4.39376116       5.00834751       5.64275885       6.27853966       6.91779852       7.63740444       8.35612965       8.35959530       7.43010187       6.47924519       5.87326050       5.01801014       4.15511513       3.99613953       4.21603251       4.21277905       3.99633145       3.78794789       3.64846158       3.57036328       3.51825857       3.42546558       3.30569530       3.20690250       3.13382483       3.07700372       3.01855040       2.94495034       2.88009071       2.84340262       2.81047988       2.77049446       2.74395967       2.72345400       2.69777012       2.68410897       2.67819190       2.66359115       2.65277863       2.65256071       2.64844418       2.64131975       2.64197588       2.64340758       2.63871193       2.63802528       2.64261532       2.64100552       2.63817549       2.64254594       2.64369440       2.64005923       2.64284158       2.64562130       2.64192820       2.64274240       2.64641380       2.64326859       2.64208603       2.64604473       2.64400506       2.64103222       2.64467287       2.64436555       2.64016294       2.64285350       2.64522481       2.64121747       2.64182878       2.64710975       2.64667058       2.64622283       2.65362310       2.65895391       2.65999269       2.67099190       2.68671060       2.69388318       2.70778751       2.73451233       2.75677371       2.78376079       2.82422638       2.85868621       2.89639854       2.96211076       3.03690863       3.09534407       3.15184903       3.22648191       3.32636929       3.44511676       3.53732944       3.58907485       3.66626000       3.80620384       4.01394653       4.22635603       4.22561026       4.00502491       4.16521645       5.02413177       5.87142134       6.47031927       7.41473436       8.33850861       8.33207417       7.61321306       6.89461374       6.25685024       5.62287855       4.99040699       4.37772131       3.80448794       3.28627801       2.83252382       2.44606948       2.12449241       1.86206961       4.36858749       5.09257746       5.87042713       6.66925049       7.43764114       8.10620308       8.61289501       9.16163445       9.43146706       7.91967344       7.09837008       7.03257561       5.29811192       3.22335577       3.56742406       4.43188143       4.35055304       3.85282421       3.38928080       3.24359679       3.41359663       3.44779515       3.20704842       3.06593370       3.02888870       2.92546439       2.87981534       2.88265896       2.76215529       2.64330196       2.67471743       2.67251229       2.57323146       2.55709243       2.57221866       2.51597428       2.50221062       2.52430272       2.49230266       2.47206521       2.49058938       2.48449159       2.46700335       2.47519588       2.48197293       2.46747017       2.46679306       2.48372364       2.47470760       2.46238446       2.48199511       2.48309803       2.46277022       2.47775078       2.48969769       2.46655440       2.47133231       2.49219918       2.47338128       2.46564412       2.48912215       2.48026371       2.46347547       2.48251319       2.48435569       2.46470881       2.47508788       2.48590755       2.47036123       2.46948075       2.48438430       2.47994113       2.47138119       2.48767638       2.49614358       2.47912717       2.49743581       2.53128529       2.51216125       2.52326679       2.58041024       2.57053947       2.58501840       2.68264818       2.68935251       2.65834117       2.77596474       2.90177345       2.89985371       2.93895411       3.04587865       3.09170914       3.22886848       3.46555066       3.43494439       3.26280570       3.40863967       3.88026476       4.37481451       4.44303751       3.57489038       3.24648070       5.31706429       7.03723907       7.09462738       7.91049004       9.41422272       9.13833046       8.58761501       8.08102798       7.41377163       6.64733982       5.85078096       5.07520819       4.35330772       3.70753098       3.15029097       2.68317533       2.30017829       1.99154174       4.96583939       5.87998962       6.87263823       7.90013313       8.82597160       9.62661648       10.1767597       9.11051559       9.96917152       8.61191750       7.69750357       8.69904327       6.74412346       4.18086672       3.81119704       4.97404194       4.79823208       3.85353875       3.31922340       3.29779267       3.32175660       3.52564526       3.38401771       3.03595424       3.07126307       3.12450027       2.96985483       2.91243529       2.88777471       2.79461861       2.75338459       2.78132010       2.73262525       2.64964724       2.66375470       2.66512823       2.61771512       2.61854219       2.61754704       2.59219885       2.59637213       2.59765267       2.58411694       2.58841467       2.58790469       2.57909393       2.58613300       2.58874011       2.58009791       2.58351994       2.58886194       2.58403563       2.58353138       2.58817387       2.58731031       2.58452749       2.58644676       2.58887196       2.58686948       2.58478975       2.58729625       2.58896542       2.58472896       2.58437443       2.58968425       2.58557701       2.58138943       2.58984089       2.58884501       2.58148551       2.58973026       2.59190202       2.58800745       2.60096407       2.60053158       2.59720063       2.62318969       2.62482572       2.62438583       2.67284966       2.67193198       2.65883303       2.74465489       2.79329753       2.76456809       2.80758882       2.90279388       2.93194270       2.99029851       3.14032459       3.08887792       3.06145215       3.41093230       3.54944944       3.34549069       3.32091737       3.34146261       3.88536644       4.83251572       4.99487400       3.81966639       4.18634558       6.75559092       8.70428467       7.69715786       8.60692978       9.95299911       9.08834267       10.1502209       9.60014439       8.79989624       7.87592363       6.85106277       5.86114502       4.94952917       4.14877892       3.47296858       2.91824555       2.47130585       2.11603212       5.58157587       6.74170208       8.01097775       9.22262669       10.4352627       12.0358915       15.8478527       11.0664549       9.60820389       10.0592890       9.16533279       7.81411886       8.29680824       8.52935600       8.00496864       7.51739979       6.56764841       6.62578440       7.12761211       6.41349030       5.76952744       6.01061201       5.71599436       5.27426291       5.42866087       5.34552574       4.91391468       4.83951283       4.91859722       4.73814201       4.55783844       4.58225393       4.55525064       4.40703440       4.38110161       4.43322039       4.35072708       4.26899910       4.32679796       4.33460951       4.24086094       4.25599098       4.32224941       4.25091362       4.21686125       4.30504322       4.27852583       4.20812559       4.27812958       4.30071211       4.22386503       4.25239182       4.30807924       4.25120306       4.23413515       4.29904461       4.28079605       4.22894526       4.27634144       4.30266285       4.23881626       4.24805069       4.30970430       4.26071358       4.22443533       4.30067921       4.28831530       4.21420097       4.27892447       4.31564045       4.22887897       4.25458622       4.33272409       4.27347946       4.25110626       4.34561729       4.34768963       4.28785133       4.36512995       4.45599127       4.40773392       4.42693615       4.57846022       4.61398840       4.58594179       4.76191616       4.94850492       4.87182331       4.93942833       5.37212276       5.45967960       5.29461813       5.73144341       6.03649855       5.78831339       6.41818333       7.13306618       6.62237740       6.55566597       7.51149416       7.98824549       8.49236584       8.26407528       7.79412270       9.14359474       10.0350752       9.58186340       11.0414705       15.8116188       12.0072784       10.4072208       9.19645309       7.98736000       6.72131109       5.56424904       4.58118582       3.77810407       3.13540769       2.62698650       2.22808886       6.13289881       7.56663132       9.17130566       10.4424906       12.3040590       16.7831116       10.7373743       8.36090565       11.6070118       11.2252426       9.92835236       9.55344772       10.3447313       10.5172596       10.3110723       10.2808237       9.68683052       9.33329010       9.44450855       9.10789871       8.41183949       8.26090527       8.45400047       8.03040314       7.63380766       7.81855011       7.56707907       7.09728384       7.16657686       7.17729425       6.84241533       6.72660780       6.84187746       6.69689369       6.49522400       6.58729744       6.58307123       6.40417051       6.43599033       6.49511051       6.38106394       6.37095308       6.43395329       6.37668467       6.35388613       6.39838028       6.37715244       6.35795403       6.38300657       6.37908602       6.36612415       6.37840986       6.38204622       6.37364292       6.37704420       6.38311863       6.38038969       6.37730455       6.38049984       6.38455725       6.37941265       6.37563324       6.38497925       6.38343859       6.37069368       6.38365221       6.39115763       6.36630917       6.38377762       6.41012907       6.36772251       6.38625193       6.44935989       6.39221811       6.39551067       6.51342630       6.46560669       6.42713308       6.60434818       6.62358141       6.52982426       6.72281647       6.88028145       6.77215528       6.87583733       7.21358871       7.21838140       7.14040232       7.59906101       7.86659670       7.68114233       8.05511475       8.48323441       8.29938126       8.43375492       9.11849117       9.46316147       9.33815098       9.66109657       10.2553082       10.2791920       10.4564037       10.2769289       9.50394821       9.87793827       11.1871309       11.5999537       8.35010052       10.7173223       16.7390289       12.2725163       10.4155264       9.14596462       7.54491615       6.11475563       4.95260906       4.03452206       3.31581688       2.75540161       2.32001615       6.48356676       8.04842281       9.74814415       11.0487032       15.1293650       11.7581244       7.06333923       12.7113609       15.8449469       11.2336617       9.41515446       10.9444542       12.6203461       12.9220304       12.0518885       12.5772390       12.5485086       12.4920731       12.7102709       11.6466980       10.9924927       11.3613710       11.0288429       10.6613226       10.5998850       10.4279804       10.0939779       9.73628902       9.79261780       9.63042355       9.23755360       9.26288223       9.25278664       9.04329777       8.93704796       8.93513298       8.90134430       8.77108192       8.76269913       8.79940033       8.69043446       8.68892574       8.73899937       8.65908432       8.65982723       8.70388317       8.65387344       8.65396500       8.68746567       8.65990257       8.65699196       8.67885303       8.66896343       8.66418552       8.67199612       8.67436123       8.67257309       8.66982269       8.67258644       8.67624664       8.67534637       8.66699123       8.67242241       8.68550301       8.66403389       8.66517735       8.69749641       8.66675854       8.66214657       8.71778297       8.67969608       8.67227840       8.75739288       8.71703911       8.71117592       8.82289219       8.79902649       8.80396938       8.93188858       8.97673321       8.98492050       9.08369541       9.29693031       9.32268810       9.28738308       9.67796516       9.86142063       9.79518604       10.1410561       10.4905643       10.6612816       10.7027140       11.0651894       11.4079390       11.0289412       11.6652927       12.7289133       12.4923000       12.5040140       12.5148478       11.9982004       12.8348045       12.5012894       10.8597670       9.34517384       11.1776705       15.8491135       12.6676559       7.00875330       11.7178850       15.0964575       11.0235424       9.72238255       8.02614498       6.46503162       5.20200109       4.21209669       3.44268513       2.84625244       2.38512611       6.59941578       8.08901978       9.41012192       9.01916409       8.84877491       8.49464798       6.07365894       13.4887877       9.30597878       6.16162014       7.16019773       5.85883665       5.81831455       6.04129171       4.69739819       4.96872759       4.94679213       4.28926420       3.95772648       3.89330053       3.89146352       3.50191140       3.36658001       3.74734855       3.34284711       2.85755396       3.40358138       3.25842929       2.65543342       3.04635930       3.12665582       2.64371252       2.75891519       2.98845339       2.69694424       2.58157802       2.84027958       2.75261855       2.54933810       2.70478725       2.75547194       2.59893990       2.62500715       2.71428943       2.65631795       2.60819101       2.66147685       2.68796611       2.63258314       2.62128615       2.68735099       2.66953659       2.60669422       2.66441894       2.69749880       2.61656928       2.63538146       2.70637178       2.64143515       2.61330533       2.69473171       2.67078209       2.60760951       2.66601253       2.69161797       2.62610292       2.63143945       2.68914413       2.66793227       2.61261749       2.65598154       2.71884084       2.63623333       2.60125113       2.75591421       2.72004628       2.55909729       2.75060654       2.85436773       2.60123730       2.69756889       2.99675822       2.78571868       2.65360904       3.12802434       3.07245231       2.67909527       3.25962472       3.42284513       2.88914967       3.35257387       3.75932479       3.39273262       3.52084160       3.90158892       3.91602540       3.98842454       4.30654716       4.96019650       4.98465395       4.71507549       6.04914379       5.81286049       5.86435461       7.17668390       6.16448784       9.28345299       13.5223103       6.00907612       8.45072842       8.82994270       8.99962044       9.38537121       8.06693268       6.58085537       5.31160784       4.29859114       3.50698709       2.89299512       2.41879344       6.59941626       8.08902073       9.41012096       9.01916409       8.84877586       8.49464703       6.07365799       13.4887819       9.30597019       6.16161966       7.16019392       5.85884190       5.81830549       6.04129219       4.69739628       4.96872807       4.94680071       4.28926182       3.95772839       3.89329958       3.89146280       3.50190949       3.36656880       3.74734926       3.34285140       2.85755849       3.40358138       3.25843096       2.65543556       3.04636836       3.12665510       2.64371800       2.75892162       2.98844814       2.69695473       2.58158588       2.84028959       2.75262690       2.54934549       2.70478797       2.75548077       2.59894824       2.62501144       2.71428752       2.65632510       2.60819101       2.66148591       2.68797112       2.63257885       2.62129259       2.68736672       2.66954565       2.60669398       2.66441846       2.69750428       2.61657810       2.63538241       2.70636749       2.64143705       2.61331058       2.69473886       2.67078710       2.60760975       2.66601729       2.69162726       2.62610340       2.63144946       2.68914604       2.66793346       2.61262584       2.65598154       2.71884108       2.63623595       2.60125923       2.75592113       2.72005534       2.55910778       2.75061035       2.85436869       2.60123873       2.69757295       2.99676323       2.78572059       2.65361333       3.12802672       3.07246280       2.67910671       3.25963163       3.42284727       2.88915849       3.35258818       3.75932980       3.39273858       3.52084374       3.90159297       3.91603374       3.98843122       4.30655575       4.96020746       4.98466444       4.71507835       6.04915905       5.81286240       5.86434937       7.17668915       6.16449022       9.28345585       13.5223112       6.00907612       8.45072842       8.82994270       8.99962044       9.38537121       8.06693268       6.58085537       5.31160831       4.29859161       3.50698709       2.89299488       2.41879344       6.48356676       8.04842377       9.74814510       11.0487051       15.1293650       11.7581253       7.06333876       12.7113628       15.8449469       11.2336693       9.41515827       10.9444590       12.6203499       12.9220304       12.0518770       12.5772448       12.5485067       12.4920692       12.7102823       11.6467009       10.9925041       11.3613720       11.0288448       10.6613216       10.5998936       10.4279823       10.0939798       9.73628902       9.79261971       9.63042736       9.23755455       9.26287746       9.25279236       9.04329109       8.93704605       8.93513298       8.90135384       8.77107430       8.76268482       8.79939938       8.69042969       8.68892574       8.73900127       8.65907288       8.65982723       8.70388412       8.65388298       8.65398312       8.68745422       8.65989876       8.65698910       8.67886448       8.66896725       8.66419315       8.67200375       8.67436314       8.67257500       8.66981697       8.67258072       8.67625523       8.67534924       8.66700268       8.67242241       8.68550587       8.66402912       8.66517544       8.69749641       8.66676140       8.66213799       8.71776962       8.67968941       8.67227364       8.75737476       8.71703053       8.71116352       8.82288647       8.79903030       8.80397415       8.93189430       8.97673035       8.98492527       9.08369827       9.29692554       9.32268810       9.28736877       9.67796421       9.86141300       9.79518414       10.1410570       10.4905634       10.6612864       10.7027092       11.0651817       11.4079323       11.0289469       11.6652994       12.7289085       12.4923000       12.5040121       12.5148401       11.9981937       12.8348074       12.5012865       10.8597593       9.34516716       11.1776600       15.8491058       12.6676512       7.00875235       11.7178869       15.0964594       11.0235434       9.72238350       8.02614498       6.46503115       5.20200062       4.21209717       3.44268513       2.84625196       2.38512611       6.13289976       7.56663132       9.17130661       10.4424906       12.3040600       16.7831135       10.7373743       8.36090660       11.6070118       11.2252417       9.92834854       9.55344582       10.3447294       10.5172586       10.3110723       10.2808237       9.68683052       9.33328915       9.44450760       9.10789776       8.41183853       8.26090431       8.45399952       8.03040218       7.63380575       7.81854916       7.56707859       7.09728479       7.16657591       7.17729425       6.84241486       6.72660732       6.84187746       6.69689369       6.49522400       6.58729792       6.58307219       6.40417099       6.43599224       6.49511194       6.38106441       6.37095356       6.43395329       6.37668419       6.35388613       6.39837885       6.37715197       6.35795450       6.38300705       6.37908554       6.36612415       6.37840891       6.38204527       6.37364101       6.37704515       6.38311815       6.38038921       6.37730455       6.38049984       6.38455820       6.37941265       6.37563229       6.38497925       6.38343716       6.37069368       6.38365221       6.39115763       6.36630917       6.38377810       6.41012955       6.36772299       6.38625240       6.44936037       6.39221716       6.39551067       6.51342487       6.46560621       6.42713308       6.60434866       6.62358236       6.52982473       6.72281694       6.88028145       6.77215481       6.87583590       7.21358919       7.21838236       7.14040184       7.59906101       7.86659670       7.68114185       8.05511475       8.48323441       8.29938030       8.43375587       9.11848927       9.46316242       9.33815193       9.66109657       10.2553072       10.2791910       10.4564028       10.2769279       9.50394630       9.87793636       11.1871300       11.5999537       8.35009956       10.7173233       16.7390289       12.2725182       10.4155273       9.14596558       7.54491711       6.11475706       4.95260954       4.03452206       3.31581688       2.75540161       2.32001615       5.58157539       6.74170256       8.01097870       9.22262764       10.4352627       12.0358915       15.8478546       11.0664549       9.60820484       10.0592899       9.16533279       7.81411743       8.29680729       8.52935600       8.00496769       7.51739979       6.56764841       6.62578440       7.12761164       6.41348982       5.76952839       6.01061153       5.71599531       5.27426338       5.42866135       5.34552670       4.91391516       4.83951330       4.91859722       4.73814249       4.55783844       4.58225441       4.55525064       4.40703440       4.38110113       4.43322086       4.35072756       4.26899958       4.32679892       4.33460951       4.24086094       4.25599146       4.32224941       4.25091314       4.21686125       4.30504370       4.27852583       4.20812654       4.27813005       4.30071259       4.22386456       4.25239134       4.30807924       4.25120306       4.23413515       4.29904509       4.28079510       4.22894526       4.27634144       4.30266333       4.23881626       4.24805069       4.30970478       4.26071310       4.22443533       4.30067921       4.28831530       4.21420145       4.27892542       4.31563997       4.22888041       4.25458622       4.33272457       4.27347994       4.25110722       4.34561729       4.34769011       4.28785133       4.36513042       4.45599222       4.40773392       4.42693615       4.57846117       4.61398983       4.58594227       4.76191664       4.94850540       4.87182379       4.93942976       5.37212324       5.45968151       5.29461908       5.73144341       6.03649807       5.78831434       6.41818333       7.13306761       6.62237787       6.55566597       7.51149511       7.98824596       8.49236488       8.26407337       7.79412174       9.14359474       10.0350752       9.58186531       11.0414724       15.8116198       12.0072803       10.4072227       9.19645500       7.98736048       6.72131205       5.56424904       4.58118677       3.77810383       3.13540721       2.62698650       2.22808886       4.96584034       5.87999010       6.87263823       7.90013313       8.82597351       9.62661743       10.1767607       9.11051846       9.96917439       8.61191654       7.69750309       8.69904327       6.74412251