<VTKFile type="RectilinearGrid" version="0.1" format="ascii">
 <RectilinearGrid WholeExtent="1 120 1 18 1 18">
  <Piece Extent="1 120 1 18 1 18">
   <Coordinates>
    <DataArray type="Float32" Name="X_COORDINATES" NumberOfComponents="1" format="ascii">
  -3.06248199E-03  -3.00875423E-03  -2.95502646E-03  -2.90129869E-03  -2.84757116E-03  -2.79384339E-03  -2.74011563E-03  -2.68638786E-03  -2.63266009E-03  -2.57893233E-03  -2.52520456E-03  -2.47147679E-03  -2.41774903E-03  -2.36402126E-03  -2.31029349E-03  -2.25656573E-03  -2.20283796E-03  -2.14911019E-03  -2.09538243E-03  -2.04165466E-03  -1.98792689E-03  -1.93419924E-03  -1.88047148E-03  -1.82674371E-03  -1.77301595E-03  -1.71928818E-03  -1.66556041E-03  -1.61183265E-03  -1.55810488E-03  -1.50437711E-03  -1.45064935E-03  -1.39692170E-03  -1.34319393E-03  -1.28946616E-03  -1.23573840E-03  -1.18201063E-03  -1.12828286E-03  -1.07455510E-03  -1.02082733E-03  -9.67099622E-04  -9.13371856E-04  -8.59644089E-04  -8.05916323E-04  -7.52188556E-04  -6.98460848E-04  -6.44733082E-04  -5.91005315E-04  -5.37277549E-04  -4.83549811E-04  -4.29822045E-04  -3.76094278E-04  -3.22366541E-04  -2.68638774E-04  -2.14911022E-04  -1.61183270E-04  -1.07455511E-04  -5.37277556E-05   0.00000000       5.37277556E-05   1.07455511E-04   1.61183270E-04   2.14911022E-04   2.68638774E-04   3.22366541E-04   3.76094278E-04   4.29822045E-04   4.83549811E-04   5.37277549E-04   5.91005315E-04   6.44733082E-04   6.98460848E-04   7.52188556E-04   8.05916323E-04   8.59644089E-04   9.13371856E-04   9.67099622E-04   1.02082733E-03   1.07455510E-03   1.12828286E-03   1.18201063E-03   1.23573840E-03   1.28946616E-03   1.34319393E-03   1.39692170E-03   1.45064935E-03   1.50437711E-03   1.55810488E-03   1.61183265E-03   1.66556041E-03   1.71928818E-03   1.77301595E-03   1.82674371E-03   1.88047148E-03   1.93419924E-03   1.98792689E-03   2.04165466E-03   2.09538243E-03   2.14911019E-03   2.20283796E-03   2.25656573E-03   2.31029349E-03   2.36402126E-03   2.41774903E-03   2.47147679E-03   2.52520456E-03   2.57893233E-03   2.63266009E-03   2.68638786E-03   2.74011563E-03   2.79384339E-03   2.84757116E-03   2.90129869E-03   2.95502646E-03   3.00875423E-03   3.06248199E-03   3.11620976E-03   3.16993752E-03   3.22366529E-03   3.27739306E-03   3.33112082E-03
    </DataArray>
    <DataArray type="Float32" Name="Y_COORDINATES" NumberOfComponents="1" format="ascii">
  -4.56685928E-04  -4.02958161E-04  -3.49230424E-04  -2.95502658E-04  -2.41774906E-04  -1.88047139E-04  -1.34319387E-04  -8.05916352E-05  -2.68638778E-05   2.68638778E-05   8.05916352E-05   1.34319387E-04   1.88047139E-04   2.41774906E-04   2.95502658E-04   3.49230424E-04   4.02958161E-04   4.56685928E-04
    </DataArray>
    <DataArray type="Float32" Name="Z_COORDINATES" NumberOfComponents="1" format="ascii">
  -4.56685928E-04  -4.02958161E-04  -3.49230424E-04  -2.95502658E-04  -2.41774906E-04  -1.88047139E-04  -1.34319387E-04  -8.05916352E-05  -2.68638778E-05   2.68638778E-05   8.05916352E-05   1.34319387E-04   1.88047139E-04   2.41774906E-04   2.95502658E-04   3.49230424E-04   4.02958161E-04   4.56685928E-04
    </DataArray>
   </Coordinates>
   <PointData>
         <DataArray type="Float32" Name="Intensity" NumberOfComponents="1" format="ascii">
   3.06578755       3.44776607       3.84743142       4.25056076       4.64047050       4.99746132       5.28419209       5.40473604       5.23701143       4.79942703       4.27675581       3.82027030       3.46750832       3.21849203       3.04827499       2.91738129       2.80548930       2.71113276       2.63908339       2.58646107       2.54185104       2.49732685       2.45046997       2.40226817       2.35630774       2.31409931       2.27466106       2.23846793       2.20669532       2.17885256       2.15379643       2.13138485       2.11185908       2.09521770       2.08146429       2.07008815       2.06056213       2.05296206       2.04693460       2.04200864       2.03833818       2.03567719       2.03351879       2.03204989       2.03127694       2.03069854       2.03031683       2.03033161       2.03046250       2.03056288       2.03081965       2.03115058       2.03138423       2.03161812       2.03188562       2.03207207       2.03219914       2.03229976       2.03234196       2.03235531       2.03231907       2.03220844       2.03213310       2.03207827       2.03194284       2.03188634       2.03201127       2.03213811       2.03239417       2.03307104       2.03399181       2.03513479       2.03700209       2.03961587       2.04277325       2.04696798       2.05247998       2.05914807       2.06742597       2.07768321       2.08983827       2.10442019       2.12193608       2.14232874       2.16559887       2.19152594       2.22022152       2.25283647       2.28983283       2.32993102       2.37264848       2.41898894       2.46734262       2.51404953       2.55821466       2.60234785       2.65431046       2.72531343       2.81802750       2.92760158       3.05562019       3.22256565       3.46779370       3.81613827       4.26798964       4.78641605       5.22068167       5.38646793       5.26534748       4.97895384       4.62283850       4.23412704       3.83233237       3.43397927       3.05317116       2.70076227       2.38393688       2.10636282       1.86873412       1.66950619       3.53421950       4.02163601       4.53636169       5.06118059       5.57925606       6.08254242       6.56215954       6.86629915       6.67619610       5.98743391       5.18168402       4.47434092       3.87902856       3.51933813       3.39785457       3.32754922       3.20586777       3.06589365       2.97469568       2.92354083       2.86961317       2.81130886       2.75027943       2.68575549       2.63114142       2.58375525       2.53222847       2.48319507       2.44453430       2.41257787       2.38346910       2.35718632       2.33354807       2.31393433       2.29946804       2.28674841       2.27507663       2.26730013       2.26145387       2.25551343       2.25185061       2.25003338       2.24752045       2.24570298       2.24587107       2.24584365       2.24498367       2.24522161       2.24630618       2.24639177       2.24623919       2.24724865       2.24802542       2.24768519       2.24797845       2.24898601       2.24887419       2.24836230       2.24897051       2.24931169       2.24848104       2.24826694       2.24880123       2.24829102       2.24743962       2.24776292       2.24799013       2.24720669       2.24720025       2.24839544       2.24886489       2.24907517       2.25129151       2.25438094       2.25678182       2.26095533       2.26757121       2.27421856       2.28273892       2.29522228       2.30885482       2.32426000       2.34491277       2.36958694       2.39681125       2.42690349       2.45992184       2.49968219       2.54971409       2.60194898       2.64980745       2.70487213       2.76984143       2.83089781       2.88863277       2.94201446       2.99286771       3.08324146       3.22139215       3.34036779       3.40772772       3.52673602       3.88311505       4.47293949       5.17388678       5.97381639       6.65801477       6.84552860       6.54078388       6.06168079       5.55950260       5.04292393       4.51977539       4.00669956       3.52076793       3.07546425       2.67931557       2.33597541       2.04509306       1.80351985       4.06094122       4.67588902       5.32943821       5.99501705       6.64238596       7.26099777       7.90630960       8.45676422       8.24948025       7.24502325       6.20726299       5.24312353       4.12602377       3.51702237       3.66527200       3.79592967       3.59822249       3.32447791       3.24144387       3.23083282       3.16289306       3.09429073       3.00571036       2.90556288       2.86432195       2.82651234       2.74362469       2.67699456       2.64218903       2.60318851       2.56785154       2.54362607       2.51173925       2.48464441       2.47645235       2.46288824       2.44314504       2.43767142       2.43475199       2.42478871       2.42084002       2.42206430       2.41848683       2.41462612       2.41672134       2.41888213       2.41591406       2.41493034       2.41953182       2.41996694       2.41627407       2.41930985       2.42321491       2.41932106       2.41864586       2.42415714       2.42270184       2.41843915       2.42249227       2.42467022       2.41938519       2.41965318       2.42397642       2.42069530       2.41745162       2.42121530       2.42149305       2.41713452       2.41809869       2.42161012       2.42008948       2.41819692       2.42239547       2.42686486       2.42632508       2.43050289       2.44129062       2.44540930       2.45145059       2.47198343       2.48687577       2.49586225       2.52394414       2.55750322       2.58268189       2.61845827       2.65887260       2.69555616       2.76310873       2.84644485       2.88482141       2.92627311       3.02715921       3.11679292       3.18427300       3.25026870       3.26128054       3.34500360       3.61683440       3.81051397       3.67602229       3.52746892       4.13521910       5.24541616       6.20096207       7.23133564       8.23010445       8.43388367       7.88252687       7.23766422       6.62029648       5.97471428       5.31117058       4.65965223       4.04654837       3.49008274       3.00077486       2.58199072       2.23149443       1.94357061       4.64123631       5.41236115       6.24181175       7.09037590       7.88041878       8.52361012       8.92433167       9.21830368       9.21289539       7.91311169       6.99989986       5.90073919       3.64999986       2.86511278       3.99288297       4.23375177       3.40143108       2.91423368       3.22366548       3.31172895       3.19717932       3.21707606       3.01639986       2.83912301       3.00194526       2.99382091       2.75477290       2.72378421       2.78710437       2.69743276       2.63172793       2.65629005       2.60733509       2.54598856       2.57607174       2.56937170       2.51117134       2.51687360       2.53234434       2.50504923       2.49674249       2.50674844       2.50108051       2.49210691       2.49379086       2.50181770       2.49670410       2.48605943       2.49911594       2.50574613       2.48684359       2.49262547       2.51109982       2.49410009       2.48647428       2.51009679       2.50398397       2.48410654       2.50266385       2.51132226       2.48783755       2.49333215       2.51193571       2.49493146       2.48732138       2.50656104       2.50183821       2.48802328       2.49823332       2.50484180       2.49734187       2.49515724       2.50444293       2.51174879       2.50245214       2.50968695       2.53842616       2.52535844       2.51831579       2.57743049       2.58790493       2.55627441       2.61686349       2.67164278       2.64863586       2.71014833       2.80196619       2.74444032       2.77481580       3.01300812       3.02445769       2.86021018       3.03568649       3.24402237       3.22600436       3.32871199       3.23793697       2.94045234       3.43077683       4.25348091       4.00208712       2.86879706       3.66512060       5.91237497       6.99929190       7.90307379       9.19651031       9.19587612       8.89903641       8.49779987       7.85576200       7.06775618       6.22165108       5.39468241       4.62581444       3.93666863       3.33948612       2.83625031       2.42113280       2.08430815       5.26234436       6.22552299       7.27954435       8.39105129       9.36511898       10.1173820       10.5746613       9.00204372       9.57890606       8.96003246       7.92565823       7.02558327       5.00742149       4.54091883       4.63105202       4.66245508       3.35909200       2.88401651       3.77386832       3.95554137       3.59239864       3.57924557       3.59632444       3.43239403       3.53255153       3.60704446       3.35128570       3.25705719       3.41399932       3.36453390       3.21490240       3.20391607       3.23111892       3.17686772       3.14101338       3.15998840       3.12083459       3.08707571       3.11575437       3.09813547       3.06598020       3.08371305       3.08209372       3.06021380       3.06961441       3.07708168       3.06047869       3.05738926       3.07389283       3.07112527       3.05300689       3.06395888       3.07993102       3.05957866       3.05367541       3.07960773       3.07166409       3.04972267       3.07027125       3.08075666       3.05537152       3.05917954       3.08037305       3.06643152       3.05451465       3.07167506       3.07630515       3.06071401       3.06224871       3.07942820       3.07453418       3.06414008       3.08482885       3.08970618       3.07266235       3.10297036       3.12340045       3.09601831       3.12800002       3.17091036       3.15448046       3.18683147       3.24284601       3.22221565       3.23312402       3.38062859       3.43427372       3.27728534       3.37057948       3.63659334       3.56177449       3.44841933       3.61983776       3.61741447       3.62547112       3.97730494       3.78862786       2.89558697       3.39056969       4.70067263       4.64815760       4.51565409       5.00083876       7.03996468       7.92773581       8.95142078       9.56289959       8.98096848       10.5467024       10.0896730       9.33792400       8.36589813       7.25733280       6.20630360       5.24585056       4.39934826       3.68043709       3.08648610       2.60469007       2.21889067       5.89191055       7.08922338       8.39481163       9.69032478       11.0054989       12.5537109       16.2630863       10.6326847       9.30770302       10.1894989       8.71465778       7.41277075       8.27508736       8.23184490       7.05656815       6.35773373       5.91084433       5.89980555       5.99965620       5.48708963       4.89248085       4.98157835       5.01720285       4.74177885       4.62886238       4.56585121       4.38643217       4.28206682       4.27898216       4.20858526       4.07298899       4.01532507       4.04473019       4.00416279       3.90045404       3.90694547       3.93707228       3.86492324       3.83929634       3.89138961       3.86230016       3.80841780       3.85384059       3.87337589       3.81197309       3.82667899       3.87514901       3.83014107       3.81735587       3.86976242       3.84584141       3.81916165       3.86293983       3.85530615       3.82544518       3.85800934       3.85869122       3.82932830       3.85634804       3.86096668       3.82720280       3.85375571       3.86645436       3.82300138       3.84534788       3.87384033       3.82378101       3.83156729       3.87981153       3.83569193       3.81685781       3.87933469       3.86519432       3.81807470       3.87070179       3.90500259       3.85480404       3.87772560       3.95242047       3.92748356       3.92061520       4.02307129       4.06772661       4.04144192       4.09680271       4.23379993       4.30981970       4.30955267       4.40844393       4.59678078       4.66254330       4.75985003       5.03643417       5.01080847       4.90942478       5.50148249       6.01805210       5.89847851       5.90091705       6.36291313       7.04993629       8.19879532       8.24461269       7.39334726       8.69345188       10.1657257       9.28670311       10.6131592       16.2243633       12.5241079       10.9764853       9.66334152       8.37064552       7.06848764       5.87439919       4.84741831       3.99986243       3.31592107       2.77064657       2.33940363       6.44485426       7.89354801       9.47008133       10.7311993       12.6533995       16.9208355       9.91926575       8.86109352       12.3888378       11.6383400       10.2130222       10.2120428       10.9961071       10.7673950       9.82600594       9.28880978       8.95691586       8.03960037       7.80374908       7.86518812       7.20361805       6.95231390       7.34961271       7.16451168       6.53344822       6.58728743       6.72368670       6.27340460       6.09818125       6.32266092       6.15843201       5.84688377       5.93168402       6.01912928       5.78795147       5.70857382       5.86704874       5.79404116       5.64913559       5.74138021       5.77261782       5.66379595       5.67950344       5.73391390       5.69312382       5.67748117       5.70151663       5.70157623       5.69668055       5.69312334       5.69724703       5.70809984       5.70112944       5.69706631       5.70766544       5.70690298       5.70349598       5.70617676       5.70389080       5.70744085       5.70963430       5.69947958       5.70267725       5.71123362       5.70205736       5.69736290       5.70123291       5.70785332       5.70983505       5.68582535       5.70020866       5.74561787       5.69495392       5.67393208       5.78568935       5.76519871       5.66767979       5.80763054       5.89566183       5.73977327       5.80697489       6.04874468       5.97449636       5.87924242       6.18694687       6.36809111       6.14486599       6.30283833       6.76389742       6.64166927       6.57151127       7.19640350       7.39028025       6.98795557       7.22527933       7.88659859       7.83827305       8.05866909       8.95248413       9.28857040       9.80726242       10.7193422       10.9444981       10.1623344       10.1572676       11.6026840       12.3829231       8.84541416       9.90251732       16.8780556       12.6223736       10.7042112       9.44448471       7.87156963       6.42655420       5.22659636       4.26533318       3.50499558       2.90671372       2.43780112       6.77886581       8.32746220       9.94290447       11.0987320       15.0525713       11.4762316       7.95894480       15.2347164       16.3414516       12.9434099       11.1611710       13.1047897       14.7244396       13.9587631       12.2159634       12.8644447       12.3576441       11.5776033       10.9399633       10.2641211       9.99986935       10.0278378       10.0940561       9.93174267       9.50358391       9.28000259       9.38710594       8.99691296       8.71212387       8.94847679       8.71795464       8.42232704       8.51588821       8.46275711       8.28694439       8.23633289       8.28485489       8.25641823       8.14178371       8.16461754       8.20164490       8.12684441       8.11525345       8.14085293       8.13714886       8.12893581       8.10485268       8.13014412       8.15570736       8.10457420       8.11511517       8.16584587       8.12325668       8.11391163       8.15946007       8.13338757       8.12510395       8.15497875       8.12797070       8.13195419       8.16200542       8.11956310       8.12353039       8.16961956       8.12433529       8.10875702       8.16077900       8.14192295       8.11518860       8.13786316       8.15020084       8.15780640       8.13221169       8.14291668       8.22432327       8.19207668       8.16537952       8.28446293       8.31991196       8.27245998       8.32590771       8.50337982       8.56638908       8.47703743       8.76263428       9.00339127       8.77773380       9.05211258       9.44153309       9.34776115       9.57268429       9.97945118       10.1403303       10.0853186       10.0347214       10.2940531       10.9878340       11.6070576       12.3440809       12.8250828       12.1704607       13.8821154       14.6188183       13.0113211       11.0718746       12.8885059       16.3470078       15.1752243       7.90100861       11.4379158       15.0245619       11.0751143       9.91712856       8.30499458       6.76021385       5.47385263       4.44630098       3.63677549       3.00243545       2.50721526       6.86792135       8.29350853       9.43235207       8.81881332       9.34410286       9.04343224       7.06261396       12.2027512       9.03183079       6.72594357       6.69777012       6.22914600       5.56216526       5.27930784       4.46807957       4.46653605       3.89670777       3.17298365       2.86374879       2.72061563       3.02632666       2.59499431       2.27173471       2.73961949       2.56303906       1.92002952       2.35939527       2.60400057       1.91696644       2.01354241       2.44261122       2.02197790       1.80470490       2.19738507       2.10794663       1.79737365       1.99565041       2.11269546       1.87680078       1.88004923       2.04770947       1.94706070       1.86552012       1.97411430       1.97076070       1.90245223       1.93195271       1.95659089       1.93632126       1.93083644       1.93589318       1.94383204       1.94705963       1.93176615       1.93405604       1.95258665       1.94372535       1.92832541       1.94202197       1.95344353       1.93575692       1.93114567       1.94665432       1.94547498       1.93706083       1.93132520       1.93665385       1.95770872       1.93573689       1.90320885       1.96880853       1.98042250       1.87133455       1.94122767       2.05247784       1.89380813       1.87192059       2.11153769       2.01273632       1.80251491       2.09984136       2.21035719       1.82630873       2.01335025       2.44719839       2.04249454       1.91894448       2.60130978       2.38174105       1.94257510       2.56518340       2.75156641       2.30594468       2.61106133       3.02776170       2.75450683       2.90580559       3.19516182       3.92971921       4.50116014       4.49918079       5.30387020       5.56853580       6.24232721       6.72268057       6.71955490       9.01054955       12.2265949       6.98097229       8.99734783       9.33461285       8.80208969       9.40785980       8.27133274       6.84929514       5.57646608       4.53270769       3.70300698       3.05146885       2.54300833       6.86792135       8.29350758       9.43235207       8.81881332       9.34410191       9.04343224       7.06261158       12.2027674       9.03182697       6.72594404       6.69778538       6.22914600       5.56215525       5.27931166       4.46807194       4.46653557       3.89670467       3.17298651       2.86374879       2.72062182       3.02631378       2.59498811       2.27174211       2.73961401       2.56303644       1.92002857       2.35939360       2.60401392       1.91696870       2.01353979       2.44261479       2.02197647       1.80471110       2.19738984       2.10795140       1.79736710       1.99564731       2.11269426       1.87680316       1.88005078       2.04770613       1.94706285       1.86552787       1.97411609       1.97076762       1.90245509       1.93195033       1.95657921       1.93631518       1.93083465       1.93588269       1.94383609       1.94706142       1.93176341       1.93406081       1.95258939       1.94372582       1.92833209       1.94202006       1.95344639       1.93575692       1.93115115       1.94665062       1.94547546       1.93706191       1.93132281       1.93666244       1.95771313       1.93573952       1.90321648       1.96880400       1.98042345       1.87133443       1.94122529       2.05249357       1.89380896       1.87191701       2.11153007       2.01274109       1.80251229       2.09983373       2.21035242       1.82630301       2.01334429       2.44719529       2.04248810       1.91894770       2.60130453       2.38173151       1.94256866       2.56518054       2.75157309       2.30594063       2.61105227       3.02775502       2.75450730       2.90579987       3.19516182       3.92971587       4.50115585       4.49917412       5.30387068       5.56853867       6.24232292       6.72267723       6.71955538       9.01055145       12.2265882       6.98097134       8.99734783       9.33461475       8.80208969       9.40785980       8.27133274       6.84929514       5.57646561       4.53270817       3.70300651       3.05146861       2.54300833       6.77886534       8.32746220       9.94290447       11.0987320       15.0525703       11.4762316       7.95894527       15.2347326       16.3414536       12.9434109       11.1611738       13.1047907       14.7244406       13.9587564       12.2159576       12.8644247       12.3576345       11.5776043       10.9399681       10.2641220       9.99986744       10.0278234       10.0940523       9.93173695       9.50358868       9.27998924       9.38711548       8.99691010       8.71213055       8.94847679       8.71794796       8.42233372       8.51589108       8.46275234       8.28693676       8.23632622       8.28485775       8.25641346       8.14177895       8.16461849       8.20163918       8.12684822       8.11525726       8.14085579       8.13715076       8.12892246       8.10484886       8.13013840       8.15571213       8.10457230       8.11510277       8.16584682       8.12324047       8.11391640       8.15945339       8.13338947       8.12510395       8.15496731       8.12796402       8.13195896       8.16201305       8.11956215       8.12352276       8.16960716       8.12432098       8.10874367       8.16077518       8.14192200       8.11518764       8.13784218       8.15018749       8.15780830       8.13220882       8.14290237       8.22430420       8.19206142       8.16536903       8.28445435       8.31991577       8.27245903       8.32590580       8.50337791       8.56637573       8.47703362       8.76263714       9.00340271       8.77772331       9.05211353       9.44152641       9.34774971       9.57265854       9.97944355       10.1403160       10.0853224       10.0347214       10.2940426       10.9878206       11.6070461       12.3440838       12.8250675       12.1704597       13.8821192       14.6188202       13.0113058       11.0718737       12.8885031       16.3469982       15.1752205       7.90100908       11.4379148       15.0245638       11.0751143       9.91712952       8.30499363       6.76021385       5.47385311       4.44630098       3.63677549       3.00243568       2.50721550       6.44485569       7.89354849       9.47008038       10.7311983       12.6533976       16.9208336       9.91926384       8.86109161       12.3888378       11.6383400       10.2130213       10.2120399       10.9961061       10.7673950       9.82600498       9.28880882       8.95691681       8.03960133       7.80374908       7.86518908       7.20361805       6.95231438       7.34961319       7.16451216       6.53344822       6.58728790       6.72368670       6.27340460       6.09818125       6.32266092       6.15843201       5.84688330       5.93168354       6.01912832       5.78795052       5.70857334       5.86704826       5.79404020       5.64913654       5.74138021       5.77261782       5.66379642       5.67950439       5.73391342       5.69312429       5.67748117       5.70151615       5.70157623       5.69668102       5.69312382       5.69724703       5.70810080       5.70113087       5.69706631       5.70766544       5.70690346       5.70349693       5.70617819       5.70389080       5.70744038       5.70963430       5.69948101       5.70267820       5.71123409       5.70205784       5.69736385       5.70123291       5.70785236       5.70983505       5.68582392       5.70020771       5.74561834       5.69495487       5.67393255       5.78568888       5.76519918       5.66767931       5.80763006       5.89566183       5.73977232       5.80697393       6.04874420       5.97449589       5.87924290       6.18694830       6.36809158       6.14486837       6.30284071       6.76389933       6.64167213       6.57151175       7.19640541       7.39028263       6.98795605       7.22528076       7.88659954       7.83827448       8.05866909       8.95248508       9.28857231       9.80726242       10.7193432       10.9445000       10.1623354       10.1572685       11.6026840       12.3829231       8.84541416       9.90251923       16.8780537       12.6223736       10.7042131       9.44448471       7.87157011       6.42655373       5.22659588       4.26533318       3.50499582       2.90671349       2.43780088       5.89190960       7.08922338       8.39481163       9.69032478       11.0054979       12.5537090       16.2630844       10.6326847       9.30770493       10.1894999       8.71465778       7.41277075       8.27508736       8.23184395       7.05656719       6.35773277       5.91084433       5.89980602       5.99965620       5.48708916       4.89248037       4.98157883       5.01720285       4.74177837       4.62886238       4.56585121       4.38643169       4.28206730       4.27898312       4.20858479       4.07298899       4.01532459       4.04472971       4.00416279       3.90045476       3.90694571       3.93707347       3.86492300       3.83929610       3.89138961       3.86229944       3.80841756       3.85384083       3.87337589       3.81197357       3.82667875       3.87514853       3.83014131       3.81735682       3.86976314       3.84584141       3.81916118       3.86293960       3.85530663       3.82544470       3.85800934       3.85869122       3.82932830       3.85634780       3.86096621       3.82720208       3.85375476       3.86645389       3.82300115       3.84534693       3.87383986       3.82378125       3.83156800       3.87981081       3.83569145       3.81685758       3.87933445       3.86519384       3.81807470       3.87070179       3.90500259       3.85480428       3.87772536       3.95242000       3.92748213       3.92061424       4.02307081       4.06772566       4.04144192       4.09680271       4.23380041       4.30982065       4.30955315       4.40844393       4.59678125       4.66254425       4.75985146       5.03643560       5.01080942       4.90942478       5.50148296       6.01805258       5.89847851       5.90091610       6.36291265       7.04993534       8.19879532       8.24461365       7.39334774       8.69345188       10.1657257       9.28670406       10.6131601       16.2243671       12.5241089       10.9764853       9.66334248       8.37064552       7.06848717       5.87440062       4.84741879       3.99986267       3.31592131       2.77064681       2.33940315       5.26234436       6.22552252       7.27954483       8.39105129       9.36511993       10.1173820       10.5746613       9.00204372       9.57890606       8.96003056       7.92565918       7.02558327       5.00742054