<VTKFile type="RectilinearGrid" version="0.1" format="ascii">
 <RectilinearGrid WholeExtent="1 120 1 18 1 18">
  <Piece Extent="1 120 1 18 1 18">
   <Coordinates>
    <DataArray type="Float32" Name="X_COORDINATES" NumberOfComponents="1" format="ascii">
  -3.06248199E-03  -3.00875423E-03  -2.95502646E-03  -2.90129869E-03  -2.84757116E-03  -2.79384339E-03  -2.74011563E-03  -2.68638786E-03  -2.63266009E-03  -2.57893233E-03  -2.52520456E-03  -2.47147679E-03  -2.41774903E-03  -2.36402126E-03  -2.31029349E-03  -2.25656573E-03  -2.20283796E-03  -2.14911019E-03  -2.09538243E-03  -2.04165466E-03  -1.98792689E-03  -1.93419924E-03  -1.88047148E-03  -1.82674371E-03  -1.77301595E-03  -1.71928818E-03  -1.66556041E-03  -1.61183265E-03  -1.55810488E-03  -1.50437711E-03  -1.45064935E-03  -1.39692170E-03  -1.34319393E-03  -1.28946616E-03  -1.23573840E-03  -1.18201063E-03  -1.12828286E-03  -1.07455510E-03  -1.02082733E-03  -9.67099622E-04  -9.13371856E-04  -8.59644089E-04  -8.05916323E-04  -7.52188556E-04  -6.98460848E-04  -6.44733082E-04  -5.91005315E-04  -5.37277549E-04  -4.83549811E-04  -4.29822045E-04  -3.76094278E-04  -3.22366541E-04  -2.68638774E-04  -2.14911022E-04  -1.61183270E-04  -1.07455511E-04  -5.37277556E-05   0.00000000       5.37277556E-05   1.07455511E-04   1.61183270E-04   2.14911022E-04   2.68638774E-04   3.22366541E-04   3.76094278E-04   4.29822045E-04   4.83549811E-04   5.37277549E-04   5.91005315E-04   6.44733082E-04   6.98460848E-04   7.52188556E-04   8.05916323E-04   8.59644089E-04   9.13371856E-04   9.67099622E-04   1.02082733E-03   1.07455510E-03   1.12828286E-03   1.18201063E-03   1.23573840E-03   1.28946616E-03   1.34319393E-03   1.39692170E-03   1.45064935E-03   1.50437711E-03   1.55810488E-03   1.61183265E-03   1.66556041E-03   1.71928818E-03   1.77301595E-03   1.82674371E-03   1.88047148E-03   1.93419924E-03   1.98792689E-03   2.04165466E-03   2.09538243E-03   2.14911019E-03   2.20283796E-03   2.25656573E-03   2.31029349E-03   2.36402126E-03   2.41774903E-03   2.47147679E-03   2.52520456E-03   2.57893233E-03   2.63266009E-03   2.68638786E-03   2.74011563E-03   2.79384339E-03   2.84757116E-03   2.90129869E-03   2.95502646E-03   3.00875423E-03   3.06248199E-03   3.11620976E-03   3.16993752E-03   3.22366529E-03   3.27739306E-03   3.33112082E-03
    </DataArray>
    <DataArray type="Float32" Name="Y_COORDINATES" NumberOfComponents="1" format="ascii">
  -4.56685928E-04  -4.02958161E-04  -3.49230424E-04  -2.95502658E-04  -2.41774906E-04  -1.88047139E-04  -1.34319387E-04  -8.05916352E-05  -2.68638778E-05   2.68638778E-05   8.05916352E-05   1.34319387E-04   1.88047139E-04   2.41774906E-04   2.95502658E-04   3.49230424E-04   4.02958161E-04   4.56685928E-04
    </DataArray>
    <DataArray type="Float32" Name="Z_COORDINATES" NumberOfComponents="1" format="ascii">
  -4.56685928E-04  -4.02958161E-04  -3.49230424E-04  -2.95502658E-04  -2.41774906E-04  -1.88047139E-04  -1.34319387E-04  -8.05916352E-05  -2.68638778E-05   2.68638778E-05   8.05916352E-05   1.34319387E-04   1.88047139E-04   2.41774906E-04   2.95502658E-04   3.49230424E-04   4.02958161E-04   4.56685928E-04
    </DataArray>
   </Coordinates>
   <PointData>
         <DataArray type="Float32" Name="Intensity" NumberOfComponents="1" format="ascii">
   3.12228203       3.51220775       3.91602182       4.31659031       4.69362497       5.02400589       5.26900530       5.33735132       5.12343931       4.66172123       4.12657690       3.65195632       3.28241563       3.01785994       2.82475853       2.67402601       2.55909777       2.47874498       2.42562723       2.38547826       2.34633160       2.30524874       2.26516604       2.22891903       2.19633293       2.16674733       2.14059687       2.11702681       2.09467316       2.07417703       2.05614638       2.04020548       2.02682209       2.01585412       2.00633001       1.99834466       1.99189639       1.98660803       1.98256075       1.97940135       1.97685266       1.97522187       1.97413468       1.97315538       1.97269189       1.97266984       1.97256172       1.97259688       1.97297847       1.97326565       1.97342980       1.97381651       1.97421527       1.97436583       1.97456622       1.97488678       1.97498441       1.97496045       1.97509456       1.97513616       1.97494435       1.97485864       1.97485518       1.97462058       1.97438133       1.97438729       1.97431374       1.97414279       1.97432530       1.97470951       1.97503543       1.97580314       1.97714317       1.97864747       1.98071015       1.98374403       1.98746109       1.99209988       1.99803090       2.00518799       2.01392674       2.02425742       2.03608203       2.05036426       2.06725979       2.08623528       2.10760331       2.13081360       2.15524125       2.18215775       2.21239161       2.24552846       2.28209805       2.32214475       2.36286211       2.40132332       2.44046187       2.49230123       2.57096791       2.68351340       2.83117867       3.02082419       3.28163123       3.64702082       4.11737204       4.64873314       5.10759401       5.31983566       5.25094891       5.00620413       4.67660332       4.30069876       3.90142918       3.49891281       3.11015534       2.74800253       2.42083931       2.13299799       1.88556087       1.67724693       3.60073972       4.09745502       4.61728144       5.13885975       5.63997889       6.10636568       6.52198935       6.73348999       6.45136833       5.71131277       4.85985899       4.09486055       3.53256416       3.26900172       3.16217065       3.04497004       2.90871692       2.80824804       2.76230955       2.72882438       2.67433786       2.61575079       2.56849027       2.52395844       2.47876930       2.43851805       2.40463138       2.37557483       2.34962916       2.32531595       2.30222201       2.28166413       2.26603675       2.25354218       2.24192739       2.23276687       2.22548056       2.21936512       2.21545649       2.21201515       2.20867538       2.20759630       2.20712590       2.20553160       2.20517373       2.20609283       2.20587611       2.20563722       2.20679450       2.20743608       2.20715642       2.20786953       2.20888853       2.20870948       2.20878005       2.20971990       2.20973253       2.20925784       2.20980477       2.21001863       2.20922375       2.20920062       2.20958138       2.20879936       2.20817947       2.20862818       2.20830679       2.20736289       2.20777464       2.20836473       2.20783234       2.20845556       2.21046615       2.21148038       2.21300769       2.21687818       2.22102451       2.22559476       2.23240995       2.24056840       2.25061345       2.26313543       2.27664876       2.29333878       2.31502461       2.33925104       2.36451364       2.39134383       2.42153358       2.45658588       2.49752188       2.54317689       2.58823514       2.63553286       2.69359040       2.74734306       2.77969766       2.82428026       2.92324233       3.05688000       3.17038536       3.27384329       3.53443885       4.09237194       4.85165787       5.69776392       6.43375158       6.71355867       6.50143528       6.08617115       5.62076378       5.12107086       4.60113573       4.08295774       3.58773923       3.13148141       2.72397804       2.36946344       2.06789255       1.81634474       4.13475513       4.76042175       5.42134571       6.08483648       6.71180725       7.28344059       7.84067345       8.24933338       7.91085768       6.87039995       5.68824196       4.48008633       3.54699636       3.42608166       3.60433936       3.53231001       3.28653073       3.15350938       3.19448519       3.19037700       3.07365155       2.99277616       2.96399856       2.90613222       2.84231997       2.79893780       2.74998116       2.70862293       2.68936706       2.66153407       2.62169981       2.59731936       2.58543801       2.56688261       2.55001950       2.54295301       2.53302073       2.52373362       2.52230716       2.51761699       2.51111197       2.51221561       2.51286793       2.50868917       2.50861979       2.51162028       2.51044726       2.50911951       2.51204205       2.51334119       2.51131487       2.51265526       2.51555562       2.51390433       2.51316237       2.51639462       2.51596475       2.51355624       2.51584101       2.51685572       2.51381254       2.51428890       2.51632452       2.51392484       2.51244450       2.51457810       2.51392412       2.51122141       2.51250863       2.51425695       2.51189351       2.51206112       2.51667166       2.51689816       2.51621556       2.52319431       2.52897239       2.53113747       2.54096150       2.55218077       2.56042194       2.57797480       2.59780335       2.61117840       2.63659382       2.67777348       2.70701432       2.72660065       2.76886678       2.82032084       2.86443305       2.92718077       2.98591399       3.01564860       3.09510875       3.21047139       3.21304727       3.16987467       3.30206037       3.54578424       3.61225891       3.42885160       3.54959559       4.48063755       5.68137503       6.85607147       7.89154911       8.22710228       7.81758785       7.26062489       6.69011068       6.06487560       5.40341902       4.74455595       4.12076521       3.55274463       3.05175519       2.62142634       2.25972843       1.96117926       4.71667671       5.49886656       6.34079552       7.19559526       7.96296740       8.54288006       8.83000469       8.95132637       8.94978619       8.01515865       6.48942375       4.50100470       3.61465454       4.33760262       4.59237671       4.18998814       3.51184869       3.59593749       4.12003517       4.06060219       3.63970160       3.65383768       3.80316734       3.65835881       3.56008339       3.60109854       3.51340222       3.41959500       3.46904373       3.43819070       3.31689024       3.31569958       3.35120583       3.28789139       3.24849725       3.27456450       3.25103283       3.22165370       3.23946667       3.22760034       3.20592880       3.22146010       3.22026610       3.20274711       3.21115375       3.21721601       3.20658755       3.20752621       3.21554518       3.21282792       3.20772696       3.21292567       3.21831632       3.21143699       3.20963073       3.21966338       3.21706462       3.20849395       3.21626711       3.22054172       3.21101260       3.21153378       3.21900105       3.21514177       3.20946074       3.21386194       3.21801543       3.21105075       3.20902872       3.22007036       3.21614861       3.20739436       3.22453928       3.22802711       3.21292949       3.23417401       3.24865532       3.23181224       3.26036572       3.28681564       3.26304865       3.30139208       3.36684656       3.33466911       3.33489895       3.45809245       3.49442983       3.44230008       3.53261018       3.62896347       3.59137034       3.67961669       3.82551861       3.68408966       3.66450953       4.08132601       4.13974857       3.60463428       3.51847386       4.20746422       4.60102558       4.31773710       3.59466434       4.50673962       6.48566198       7.99768353       8.92983532       8.92865276       8.80484200       8.51725292       7.93849087       7.17313910       6.32084990       5.48148155       4.70160866       4.00223160       3.39452457       2.88029504       2.45399427       2.10620165       5.32989168       6.29795074       7.36652613       8.50460148       9.45958614       10.1072540       10.4557571       8.63768482       9.52064705       9.72877789       7.66004467       5.07240677       5.66075182       6.88962364       5.60709858       4.75882483       4.47970438       4.94395065       5.56983042       5.45181704       4.81518793       4.70666313       5.19720125       5.12132406       4.74734831       4.84970522       4.93579054       4.72337961       4.72055054       4.76973295       4.60639286       4.57311106       4.65557766       4.57985926       4.49586964       4.53610039       4.53049707       4.47507811       4.49170160       4.49149466       4.45250368       4.47011852       4.48059607       4.44550514       4.45267725       4.47550631       4.45327854       4.44607687       4.46799088       4.46269655       4.44847298       4.46079493       4.46862936       4.45553875       4.45546675       4.46867895       4.46409273       4.45398808       4.46299362       4.46980143       4.45752716       4.45560169       4.46926498       4.46422338       4.45084000       4.46348238       4.47183657       4.45111275       4.45577955       4.47975397       4.45986032       4.45089626       4.48671818       4.47958326       4.46108675       4.50080633       4.50464439       4.48785830       4.54402876       4.55325985       4.51416683       4.59942770       4.67915297       4.59772825       4.62880611       4.79954958       4.75837564       4.75179052       4.96196413       4.89168978       4.78960180       5.14829254       5.22994232       4.74774599       4.84286547       5.48337841       5.60219049       4.93633175       4.46068096       4.79036713       5.62272167       6.84364557       5.61249828       5.07108736       7.65242004       9.70684814       9.49784470       8.61589527       10.4264841       10.0793562       9.43243408       8.47944355       7.34442377       6.27897930       5.31372404       4.46276426       3.73684835       3.13362527       2.64124465       2.24444318       5.94043112       7.11938143       8.40674686       9.71665573       11.0279799       12.5005560       16.0433140       9.78629303       8.90750504       9.60623264       7.86266661       7.03819323       7.76339674       7.49492884       5.90349579       5.27345610       5.51019335       5.25391674       4.88433409       4.79874611       4.45334816       4.35631514       4.55698681       4.35638428       4.07304668       4.09095478       4.10648727       3.96069598       3.88304305       3.88994408       3.83653760       3.77407575       3.77096987       3.76033878       3.70868826       3.68216133       3.71235013       3.70070386       3.64392161       3.66174912       3.69670296       3.65005612       3.63194203       3.68411446       3.67216039       3.62412095       3.66371894       3.69233561       3.63695669       3.64161944       3.69713950       3.66452837       3.62981629       3.68162107       3.69106078       3.63713574       3.65579963       3.70088887       3.66033673       3.63551617       3.68862462       3.68655896       3.63241076       3.66176128       3.70045757       3.64783239       3.63666081       3.69385648       3.67171812       3.62835622       3.67375851       3.69210577       3.64102125       3.65473294       3.70462537       3.67451453       3.65395188       3.71061993       3.72785687       3.69798708       3.72254825       3.77833462       3.79299736       3.79439068       3.85613966       3.91477966       3.91154766       3.98505282       4.12974310       4.12201357       4.10262537       4.37788153       4.58448505       4.38218451       4.46626902       4.82085943       4.91074896       5.25681496       5.50480938       5.28267145       5.90314817       7.46854401       7.73640108       7.01684618       7.84229469       9.58295441       8.89024830       9.77022362       16.0019741       12.4707594       10.9992609       9.68974876       8.38276291       7.09893942       5.92325830       4.90407133       4.05542660       3.36486697       2.81000876       2.36794162       6.47002172       7.86399937       9.34140396       10.5076075       12.3594141       16.3160648       9.53482914       9.12001514       12.2902536       11.0746355       10.1167259       10.4743080       10.6890678       9.91567993       8.51933289       7.45692635       7.35036135       6.36420155       6.05418921       6.60286903       6.30238914       5.99987984       6.12218666       6.11663532       5.66739798       5.38004684       5.70057392       5.62535477       5.14861155       5.27252102       5.45639133       5.12697363       5.00638962       5.26160765       5.18216181       4.93371916       5.06575394       5.16577196       4.96966553       4.95803022       5.10555220       5.03160667       4.94772434       5.04206324       5.05069304       4.97596550       5.01177502       5.04501247       5.00574493       5.00957394       5.03422976       5.02120638       5.01728058       5.02845049       5.02663183       5.02423239       5.02692938       5.02793837       5.02748680       5.02484083       5.02736855       5.03050041       5.01944208       5.02226496       5.03773117       5.01478291       5.00730515       5.04874182       5.02146673       4.98039198       5.05332994       5.05572605       4.95924711       5.03397322       5.11954308       4.97935247       4.97699690       5.17769957       5.09580421       4.95393896       5.19253016       5.29156876       5.04318094       5.14379120       5.48055506       5.32155752       5.18354607       5.64490747       5.74425268       5.42974949       5.69303703       6.14959097       6.17116833       6.03092909       6.31290388       6.62396860       6.08568144       6.37592602       7.35876989       7.48023891       8.51873016       9.88328838       10.6580067       10.4345617       10.0604382       11.0459146       12.2826948       9.09896946       9.51749992       16.2747650       12.3295536       10.4812326       9.31634903       7.84246683       6.45211124       5.27507734       4.31922197       3.55499935       2.94815254       2.46864367       6.78798008       8.26099205       9.74040890       10.7118006       14.2982807       11.1422329       8.40836620       16.8242970       15.7816505       13.4110975       11.9177551       14.4215040       14.8954649       13.0507441       10.8371229       11.0227861       9.84478664       8.50911522       7.77846479       8.35877800       8.70472240       8.23716545       8.45370197       8.54015160       7.83812904       7.57570219       7.98075247       7.79504156       7.26709080       7.50773144       7.60004997       7.13570166       7.15869761       7.37890291       7.18991423       7.04923010       7.15643930       7.17992830       7.03423786       7.01172352       7.12948847       7.07809973       6.99788332       7.07210159       7.07790232       7.02517271       7.04936743       7.06027412       7.05017757       7.06002378       7.05000257       7.05418015       7.07385159       7.05517912       7.04802847       7.07734442       7.06953192       7.04495811       7.06842232       7.07916451       7.05044508       7.05602360       7.07664585       7.05777407       7.05355358       7.06576967       7.05456257       7.06509018       7.06029463       7.03312922       7.08281565       7.08778334       7.01380301       7.08470345       7.14607334       7.03760004       7.04996252       7.19738483       7.19027424       7.08215141       7.20843363       7.41108751       7.21079731       7.16691256       7.63187838       7.57067537       7.32055473       7.82955790       8.03241730       7.64290142       7.89004087       8.58200741       8.50942039       8.28726292       8.71922493       8.37182617       7.82844114       8.54664898       9.85711002       11.0277748       10.8133774       12.9945393       14.8205147       14.3406401       11.8248138       13.3603516       15.7909203       16.7604675       8.35219383       11.1038618       14.2725983       10.6891794       9.71532154       8.23908806       6.76978588       5.51660538       4.49905682       3.68754244       3.04532743       2.53965735       6.87088490       8.22092342       9.27293396       8.97480202       10.7336187       9.35536289       8.41993332       11.3495436       7.95417929       7.29017210       6.30501080       5.89267540       4.91098881       4.47853518       4.05069923       3.62306118       2.50032473       2.23588753       2.26470900       1.88144696       2.31782818       1.93619907       1.52748847       1.77069092       1.91597068       1.53641427       1.40174162       1.90861607       1.64822471       1.17862773       1.66217303       1.71164119       1.21855140       1.41173637       1.65171409       1.34883237       1.25890577       1.52380693       1.44787157       1.25405991       1.40914869       1.47424650       1.31408119       1.33676839       1.43978786       1.37256372       1.33050585       1.39248788       1.39403081       1.35850370       1.36560094       1.38373184       1.38403404       1.36662674       1.36575496       1.38985026       1.38131440       1.35822606       1.37866855       1.39143145       1.36724627       1.36479938       1.38382125       1.38500524       1.36601365       1.35802174       1.39287746       1.39427984       1.33289683       1.36840820       1.43959153       1.34437668       1.31015289       1.46847618       1.41914117       1.25641108       1.43625534       1.52845800       1.27353513       1.33828127       1.64454734       1.43217432       1.21824074       1.69457245       1.67565989       1.19713235       1.63419747       1.90980303       1.42808259       1.53703690       1.91135550       1.79356539       1.55704510       1.94528890       2.32744193       1.91295421       2.28812695       2.25981259       2.54685760       3.65779877       4.09084082       4.52345896       4.92413425       5.90981007       6.34174013       7.27291155       7.93581581       11.3659687       8.33456421       9.30741978       10.7261477       8.95772743       9.24876785       8.19932365       6.85276985       5.61689281       4.58513784       3.75426316       3.09513974       2.57628179       6.87088490       8.22092247       9.27293396       8.97480202       10.7336178       9.35536480       8.41993427       11.3495569       7.95418406       7.29017305       6.30500269       5.89267445       4.91098452       4.47852850       4.05069780       3.62305999       2.50032687       2.23586917       2.26471138       1.88143992       2.31781602       1.93619227       1.52747726       1.77067482       1.91596913       1.53639615       1.40173459       1.90859342       1.64819932       1.17860925       1.66216838       1.71163011       1.21852875       1.41172695       1.65170014       1.34881759       1.25889504       1.52379954       1.44787300       1.25405169       1.40914512       1.47423279       1.31407249       1.33675504       1.43977404       1.37255263       1.33049607       1.39248228       1.39401400       1.35850656       1.36558425       1.38371551       1.38402605       1.36660087       1.36573327       1.38983393       1.38129616       1.35820699       1.37864125       1.39140177       1.36722004       1.36478508       1.38380253       1.38498473       1.36599231       1.35800767       1.39285195       1.39426577       1.33289409       1.36840379       1.43957591       1.34436584       1.31013823       1.46846294       1.41914105       1.25639737       1.43624032       1.52844405       1.27352417       1.33827889       1.64454484       1.43216157       1.21823382       1.69455922       1.67565501       1.19713759       1.63418257       1.90979838       1.42807448       1.53702331       1.91135573       1.79355276       1.55703485       1.94529557       2.32743573       1.91294801       2.28812218       2.25981617       2.54686642       3.65779757       4.09083319       4.52345085       4.92413759       5.90980721       6.34174252       7.27290201       7.93582201       11.3659697       8.33456516       9.30742168       10.7261486       8.95772743       9.24876785       8.19932365       6.85276985       5.61689281       4.58513832       3.75426340       3.09513998       2.57628155       6.78797960       8.26099205       9.74040794       10.7118006       14.2982779       11.1422329       8.40836716       16.8243008       15.7816553       13.4110956       11.9177685       14.4214973       14.8954582       13.0507431       10.8371181       11.0227814       9.84479141       8.50910091       7.77846527       8.35876751       8.70472240       8.23716545       8.45370770       8.54016304       7.83812761       7.57571650       7.98075056       7.79504347       7.26709604       7.50773096       7.60003805       7.13569117       7.15869474       7.37888956       7.18991041       7.04922247       7.15641975       7.17990875       7.03422594       7.01170635       7.12947893       7.07810307       6.99787569       7.07211399       7.07790327       7.02517653       7.04936218       7.06026888       7.05018759       7.06001377       7.05000925       7.05417395       7.07385540       7.05518103       7.04803085       7.07734394       7.06952572       7.04497814       7.06843567       7.07917929       7.05045271       7.05604172       7.07664824       7.05777740       7.05356169       7.06577492       7.05457163       7.06509399       7.06030560       7.03312540       7.08281088       7.08777905       7.01379347       7.08469152       7.14607906       7.03759813       7.04995251       7.19739056       7.19026566       7.08213806       7.20843267       7.41109324       7.21078491       7.16690922       7.63186455       7.57066870       7.32053280       7.82955217       8.03241253       7.64290428       7.89002848       8.58200741       8.50941277       8.28725719       8.71920967       8.37181950       7.82843161       8.54663754       9.85710049       11.0277596       10.8133640       12.9945393       14.8205090       14.3406305       11.8248091       13.3603573       15.7909250       16.7604771       8.35219669       11.1038628       14.2726002       10.6891785       9.71532154       8.23908901       6.76978540       5.51660585       4.49905729       3.68754268       3.04532695       2.53965759       6.47002125       7.86399984       9.34140396       10.5076065       12.3594131       16.3160629       9.53482723       9.12001419       12.2902546       11.0746365       10.1167288       10.4743080       10.6890688       9.91567993       8.51933193       7.45692682       7.35036087       6.36420202       6.05418968       6.60286903       6.30238962       5.99988127       6.12218666       6.11663580       5.66739845       5.38004732       5.70057487       5.62535477       5.14861202       5.27252150       5.45639181       5.12697458       5.00639105       5.26160860       5.18216276       4.93371964       5.06575441       5.16577196       4.96966600       4.95802927       5.10555220       5.03160715       4.94772434       5.04206181       5.05069208       4.97596550       5.01177454       5.04501200       5.00574446       5.00957251       5.03422976       5.02120686       5.01727962       5.02844954       5.02663231       5.02423239       5.02692890       5.02793884       5.02748632       5.02483940       5.02736712       5.03049946       5.01944160       5.02226448       5.03773117       5.01478338       5.00730562       5.04874039       5.02146626       4.98039246       5.05332947       5.05572605       4.95924759       5.03397417       5.11954260       4.97935200       4.97699690       5.17769957       5.09580326       4.95393848       5.19252872       5.29156828       5.04317999       5.14378977       5.48055458       5.32155704       5.18354607       5.64490700       5.74425316       5.42974997       5.69303608       6.14959002       6.17116737       6.03092813       6.31290293       6.62396717       6.08568192       6.37592506       7.35876703       7.48023844       8.51872826       9.88328648       10.6580057       10.4345608       10.0604382       11.0459146       12.2826939       9.09896946       9.51749897       16.2747631       12.3295555       10.4812326       9.31634903       7.84246731       6.45211077       5.27507734       4.31922150       3.55499983       2.94815302       2.46864367       5.94043207       7.11938143       8.40674686       9.71665573       11.0279799       12.5005560       16.0433140       9.78629303       8.90750599       9.60623360       7.86266804       7.03819370       7.76339626       7.49492836       5.90349531       5.27345610       5.51019430       5.25391817       4.88433456       4.79874659       4.45334864       4.35631657       4.55698729       4.35638475       4.07304621       4.09095526       4.10648870       3.96069670       3.88304377       3.88994455       3.83653855       3.77407670       3.77097058       3.76033902       3.70868897       3.68216228       3.71235085       3.70070386       3.64392209       3.66174936       3.69670320       3.65005589       3.63194180       3.68411350       3.67216039       3.62412143       3.66371870       3.69233513       3.63695693       3.64161944       3.69713926       3.66452837       3.62981653       3.68162155       3.69106126       3.63713622       3.65579987       3.70088983       3.66033649       3.63551617       3.68862486       3.68655920       3.63241076       3.66176081       3.70045805       3.64783263       3.63666129       3.69385624       3.67171788       3.62835622       3.67375898       3.69210625       3.64102149       3.65473342       3.70462537       3.67451501       3.65395260       3.71061993       3.72785711       3.69798732       3.72254801       3.77833509       3.79299736       3.79439092       3.85613942       3.91477966       3.91154790       3.98505330       4.12974405       4.12201405       4.10262585       4.37788105       4.58448505       4.38218403       4.46626902       4.82085896       4.91074944       5.25681496       5.50480938       5.28267050       5.90314913       7.46854353       7.73640108       7.01684523       7.84229612       9.58295441       8.89024830       9.77022362       16.0019760       12.4707594       10.9992599       9.68974781       8.38276291       7.09893942       5.92325926       4.90407228       4.05542660       3.36486626       2.81000853       2.36794162       5.32989216       6.29795122       7.36652613       8.50460148       9.45958614       10.1072550       10.4557581       8.63768578       9.52064705       9.72877979       7.66004610       5.07240629       5.66075277