<VTKFile type="RectilinearGrid" version="0.1" format="ascii">
 <RectilinearGrid WholeExtent="1 120 1 18 1 18">
  <Piece Extent="1 120 1 18 1 18">
   <Coordinates>
    <DataArray type="Float32" Name="X_COORDINATES" NumberOfComponents="1" format="ascii">
  -3.06248199E-03  -3.00875423E-03  -2.95502646E-03  -2.90129869E-03  -2.84757116E-03  -2.79384339E-03  -2.74011563E-03  -2.68638786E-03  -2.63266009E-03  -2.57893233E-03  -2.52520456E-03  -2.47147679E-03  -2.41774903E-03  -2.36402126E-03  -2.31029349E-03  -2.25656573E-03  -2.20283796E-03  -2.14911019E-03  -2.09538243E-03  -2.04165466E-03  -1.98792689E-03  -1.93419924E-03  -1.88047148E-03  -1.82674371E-03  -1.77301595E-03  -1.71928818E-03  -1.66556041E-03  -1.61183265E-03  -1.55810488E-03  -1.50437711E-03  -1.45064935E-03  -1.39692170E-03  -1.34319393E-03  -1.28946616E-03  -1.23573840E-03  -1.18201063E-03  -1.12828286E-03  -1.07455510E-03  -1.02082733E-03  -9.67099622E-04  -9.13371856E-04  -8.59644089E-04  -8.05916323E-04  -7.52188556E-04  -6.98460848E-04  -6.44733082E-04  -5.91005315E-04  -5.37277549E-04  -4.83549811E-04  -4.29822045E-04  -3.76094278E-04  -3.22366541E-04  -2.68638774E-04  -2.14911022E-04  -1.61183270E-04  -1.07455511E-04  -5.37277556E-05   0.00000000       5.37277556E-05   1.07455511E-04   1.61183270E-04   2.14911022E-04   2.68638774E-04   3.22366541E-04   3.76094278E-04   4.29822045E-04   4.83549811E-04   5.37277549E-04   5.91005315E-04   6.44733082E-04   6.98460848E-04   7.52188556E-04   8.05916323E-04   8.59644089E-04   9.13371856E-04   9.67099622E-04   1.02082733E-03   1.07455510E-03   1.12828286E-03   1.18201063E-03   1.23573840E-03   1.28946616E-03   1.34319393E-03   1.39692170E-03   1.45064935E-03   1.50437711E-03   1.55810488E-03   1.61183265E-03   1.66556041E-03   1.71928818E-03   1.77301595E-03   1.82674371E-03   1.88047148E-03   1.93419924E-03   1.98792689E-03   2.04165466E-03   2.09538243E-03   2.14911019E-03   2.20283796E-03   2.25656573E-03   2.31029349E-03   2.36402126E-03   2.41774903E-03   2.47147679E-03   2.52520456E-03   2.57893233E-03   2.63266009E-03   2.68638786E-03   2.74011563E-03   2.79384339E-03   2.84757116E-03   2.90129869E-03   2.95502646E-03   3.00875423E-03   3.06248199E-03   3.11620976E-03   3.16993752E-03   3.22366529E-03   3.27739306E-03   3.33112082E-03
    </DataArray>
    <DataArray type="Float32" Name="Y_COORDINATES" NumberOfComponents="1" format="ascii">
  -4.56685928E-04  -4.02958161E-04  -3.49230424E-04  -2.95502658E-04  -2.41774906E-04  -1.88047139E-04  -1.34319387E-04  -8.05916352E-05  -2.68638778E-05   2.68638778E-05   8.05916352E-05   1.34319387E-04   1.88047139E-04   2.41774906E-04   2.95502658E-04   3.49230424E-04   4.02958161E-04   4.56685928E-04
    </DataArray>
    <DataArray type="Float32" Name="Z_COORDINATES" NumberOfComponents="1" format="ascii">
  -4.56685928E-04  -4.02958161E-04  -3.49230424E-04  -2.95502658E-04  -2.41774906E-04  -1.88047139E-04  -1.34319387E-04  -8.05916352E-05  -2.68638778E-05   2.68638778E-05   8.05916352E-05   1.34319387E-04   1.88047139E-04   2.41774906E-04   2.95502658E-04   3.49230424E-04   4.02958161E-04   4.56685928E-04
    </DataArray>
   </Coordinates>
   <PointData>
         <DataArray type="Float32" Name="Intensity" NumberOfComponents="1" format="ascii">
              NaN              NaN              NaN              NaN              NaN              NaN              NaN              NaN              NaN              NaN              NaN              NaN              NaN              NaN              NaN              NaN              NaN              NaN              NaN              NaN              NaN              NaN              NaN              NaN              NaN              NaN              NaN              NaN              NaN              NaN              NaN              NaN              NaN              NaN              NaN              NaN              NaN              NaN              NaN              NaN              NaN              NaN              NaN              NaN              NaN              NaN              NaN              NaN              NaN              NaN              NaN              NaN              NaN              NaN              NaN              NaN              NaN              NaN              NaN              NaN              NaN              NaN              NaN              NaN              NaN              NaN              NaN              NaN              NaN              NaN              NaN              NaN              NaN              NaN              NaN              NaN              NaN              NaN              NaN              NaN              NaN              NaN              NaN              NaN              NaN              NaN              NaN              NaN              NaN              NaN              NaN              NaN              NaN              NaN              NaN              NaN              NaN              NaN              NaN              NaN              NaN              NaN              NaN              NaN              NaN              NaN              NaN              NaN              NaN              NaN              NaN              NaN              NaN              NaN              NaN              NaN              NaN              NaN              NaN              NaN              NaN              NaN              NaN              NaN              NaN              NaN              NaN              NaN              NaN              NaN              NaN              NaN              NaN              NaN              NaN              NaN              NaN              NaN              NaN              NaN              NaN              NaN              NaN              NaN              NaN              NaN              NaN              NaN              NaN              NaN              NaN              NaN              NaN              NaN              NaN              NaN              NaN              NaN              NaN              NaN              NaN              NaN              NaN              NaN              NaN              NaN              NaN              NaN              NaN              NaN              NaN              NaN              NaN              NaN              NaN              NaN              NaN              NaN              NaN              NaN              NaN              NaN              NaN              NaN              NaN              NaN              NaN              NaN              NaN              NaN              NaN              NaN              NaN              NaN              NaN              NaN              NaN              NaN              NaN              NaN              NaN              NaN              NaN              NaN              NaN              NaN              NaN              NaN              NaN              NaN              NaN              NaN              NaN              NaN              NaN              NaN              NaN              NaN              NaN              NaN              NaN              NaN              NaN              NaN              NaN              NaN              NaN              NaN              NaN              NaN              NaN              NaN              NaN              NaN              NaN              NaN              NaN              NaN              NaN              NaN              NaN              NaN              NaN              NaN              NaN              NaN              NaN              NaN              NaN              NaN              NaN              NaN              NaN              NaN              NaN              NaN              NaN              NaN              NaN              NaN              NaN              NaN              NaN              NaN              NaN              NaN              NaN              NaN              NaN              NaN              NaN              NaN              NaN              NaN              NaN              NaN              NaN              NaN              NaN              NaN              NaN              NaN              NaN              NaN              NaN              NaN              NaN              NaN              NaN              NaN              NaN              NaN              NaN              NaN              NaN              NaN              NaN              NaN              NaN              NaN              NaN              NaN              NaN              NaN              NaN              NaN              NaN              NaN              NaN              NaN              NaN              NaN              NaN              NaN              NaN              NaN              NaN              NaN              NaN              NaN              NaN              NaN              NaN              NaN              NaN              NaN              NaN              NaN              NaN              NaN              NaN              NaN              NaN              NaN              NaN              NaN              NaN              NaN              NaN              NaN              NaN              NaN              NaN              NaN              NaN              NaN              NaN              NaN              NaN              NaN              NaN              NaN              NaN              NaN              NaN              NaN              NaN              NaN              NaN              NaN              NaN              NaN              NaN              NaN              NaN              NaN              NaN              NaN              NaN              NaN              NaN              NaN              NaN              NaN              NaN              NaN              NaN              NaN              NaN              NaN              NaN              NaN              NaN              NaN              NaN              NaN              NaN              NaN              NaN              NaN              NaN              NaN              NaN              NaN              NaN              NaN              NaN              NaN              NaN              NaN              NaN              NaN              NaN              NaN              NaN              NaN              NaN              NaN              NaN              NaN              NaN              NaN              NaN              NaN              NaN              NaN              NaN              NaN              NaN              NaN              NaN              NaN              NaN              NaN              NaN              NaN              NaN              NaN              NaN              NaN              NaN              NaN              NaN              NaN              NaN              NaN              NaN              NaN              NaN              NaN              NaN              NaN              NaN              NaN              NaN              NaN              NaN              NaN              NaN              NaN              NaN              NaN              NaN              NaN              NaN              NaN              NaN              NaN              NaN              NaN              NaN              NaN              NaN              NaN              NaN              NaN              NaN              NaN              NaN              NaN              NaN              NaN              NaN              NaN              NaN              NaN              NaN              NaN              NaN              NaN              NaN              NaN              NaN              NaN              NaN              NaN              NaN              NaN              NaN              NaN              NaN              NaN              NaN              NaN              NaN              NaN              NaN              NaN              NaN              NaN              NaN              NaN              NaN              NaN              NaN              NaN              NaN              NaN              NaN              NaN              NaN              NaN              NaN              NaN              NaN              NaN              NaN              NaN              NaN              NaN              NaN              NaN              NaN              NaN              NaN              NaN              NaN              NaN              NaN              NaN              NaN              NaN              NaN              NaN              NaN              NaN              NaN              NaN              NaN              NaN              NaN              NaN              NaN              NaN              NaN              NaN              NaN              NaN              NaN              NaN              NaN              NaN              NaN              NaN              NaN              NaN              NaN              NaN              NaN              NaN              NaN              NaN              NaN              NaN              NaN              NaN              NaN              NaN              NaN              NaN              NaN              NaN              NaN              NaN              NaN              NaN              NaN              NaN              NaN              NaN              NaN              NaN              NaN              NaN              NaN              NaN              NaN              NaN              NaN              NaN              NaN              NaN              NaN              NaN              NaN              NaN              NaN              NaN              NaN              NaN              NaN              NaN              NaN              NaN              NaN              NaN              NaN              NaN              NaN              NaN              NaN              NaN              NaN              NaN              NaN              NaN              NaN              NaN              NaN              NaN              NaN              NaN              NaN              NaN              NaN              NaN              NaN              NaN              NaN              NaN              NaN              NaN              NaN              NaN              NaN              NaN              NaN              NaN              NaN              NaN              NaN              NaN              NaN              NaN              NaN              NaN              NaN              NaN              NaN              NaN              NaN              NaN              NaN              NaN              NaN              NaN              NaN              NaN              NaN              NaN              NaN              NaN              NaN              NaN              NaN              NaN              NaN              NaN              NaN              NaN              NaN              NaN              NaN              NaN              NaN              NaN              NaN              NaN              NaN              NaN              NaN              NaN              NaN              NaN              NaN              NaN              NaN              NaN              NaN              NaN              NaN              NaN              NaN              NaN              NaN              NaN              NaN              NaN              NaN              NaN              NaN              NaN              NaN              NaN              NaN              NaN              NaN              NaN              NaN              NaN              NaN              NaN              NaN              NaN              NaN              NaN              NaN              NaN              NaN              NaN              NaN              NaN              NaN              NaN              NaN              NaN              NaN              NaN              NaN              NaN              NaN              NaN              NaN              NaN              NaN              NaN              NaN              NaN              NaN              NaN              NaN              NaN              NaN              NaN              NaN              NaN              NaN              NaN              NaN              NaN              NaN              NaN              NaN              NaN              NaN              NaN              NaN              NaN              NaN              NaN              NaN              NaN              NaN              NaN              NaN              NaN              NaN              NaN              NaN              NaN              NaN              NaN              NaN              NaN              NaN              NaN              NaN              NaN              NaN              NaN              NaN              NaN              NaN              NaN              NaN              NaN              NaN              NaN              NaN              NaN              NaN              NaN              NaN              NaN              NaN              NaN              NaN              NaN              NaN              NaN              NaN              NaN              NaN              NaN              NaN              NaN              NaN              NaN              NaN              NaN              NaN              NaN              NaN              NaN              NaN              NaN              NaN              NaN              NaN              NaN              NaN              NaN              NaN              NaN              NaN              NaN              NaN              NaN              NaN              NaN              NaN              NaN              NaN              NaN              NaN              NaN              NaN              NaN              NaN              NaN              NaN              NaN              NaN              NaN              NaN              NaN              NaN              NaN              NaN              NaN              NaN              NaN              NaN              NaN              NaN              NaN              NaN              NaN              NaN              NaN              NaN              NaN              NaN              NaN              NaN              NaN              NaN              NaN              NaN              NaN              NaN              NaN              NaN              NaN              NaN              NaN              NaN              NaN              NaN              NaN              NaN              NaN              NaN              NaN              NaN              NaN              NaN              NaN              NaN              NaN              NaN              NaN              NaN              NaN              NaN              NaN              NaN              NaN              NaN              NaN              NaN              NaN              NaN              NaN              NaN              NaN              NaN              NaN              NaN              NaN              NaN              NaN              NaN              NaN              NaN              NaN              NaN              NaN              NaN              NaN              NaN              NaN              NaN              NaN              NaN              NaN              NaN              NaN              NaN              NaN              NaN              NaN              NaN              NaN              NaN              NaN              NaN              NaN              NaN              NaN              NaN              NaN              NaN              NaN              NaN              NaN              NaN              NaN              NaN              NaN              NaN              NaN              NaN              NaN              NaN              NaN              NaN              NaN              NaN              NaN              NaN              NaN              NaN              NaN              NaN              NaN              NaN              NaN              NaN              NaN              NaN              NaN              NaN              NaN              NaN              NaN              NaN              NaN              NaN              NaN              NaN              NaN              NaN              NaN              NaN              NaN              NaN              NaN              NaN              NaN              NaN              NaN              NaN              NaN              NaN              NaN              NaN              NaN              NaN              NaN              NaN              NaN              NaN              NaN              NaN              NaN              NaN              NaN              NaN              NaN              NaN              NaN              NaN              NaN              NaN              NaN              NaN              NaN              NaN              NaN              NaN              NaN              NaN              NaN              NaN              NaN              NaN              NaN              NaN              NaN              NaN              NaN              NaN              NaN              NaN              NaN              NaN              NaN              NaN              NaN              NaN              NaN              NaN              NaN              NaN              NaN              NaN              NaN              NaN              NaN              NaN              NaN              NaN              NaN              NaN              NaN              NaN              NaN              NaN              NaN              NaN              NaN              NaN              NaN              NaN              NaN              NaN              NaN              NaN              NaN              NaN              NaN              NaN              NaN              NaN              NaN              NaN              NaN              NaN              NaN              NaN              NaN              NaN              NaN              NaN              NaN              NaN              NaN              NaN              NaN              NaN              NaN              NaN              NaN              NaN              NaN              NaN              NaN              NaN              NaN              NaN              NaN              NaN              NaN              NaN              NaN              NaN              NaN              NaN              NaN              NaN              NaN              NaN              NaN              NaN              NaN              NaN              NaN              NaN              NaN              NaN              NaN              NaN              NaN              NaN              NaN              NaN              NaN              NaN              NaN              NaN              NaN              NaN              NaN              NaN              NaN              NaN              NaN              NaN              NaN              NaN              NaN              NaN              NaN              NaN              NaN              NaN              NaN              NaN              NaN              NaN              NaN              NaN              NaN              NaN              NaN              NaN              NaN              NaN              NaN              NaN              NaN              NaN              NaN              NaN              NaN              NaN              NaN              NaN              NaN              NaN              NaN              NaN              NaN              NaN              NaN              NaN              NaN              NaN              NaN              NaN              NaN              NaN              NaN              NaN              NaN              NaN              NaN              NaN              NaN              NaN              NaN              NaN              NaN              NaN              NaN              NaN              NaN              NaN              NaN              NaN              NaN              NaN              NaN              NaN              NaN              NaN              NaN              NaN              NaN              NaN              NaN              NaN              NaN              NaN              NaN              NaN              NaN              NaN              NaN              NaN              NaN              NaN              NaN              NaN              NaN              NaN              NaN              NaN              NaN              NaN              NaN              NaN              NaN              NaN              NaN              NaN              NaN              NaN              NaN              NaN              NaN              NaN              NaN              NaN              NaN              NaN              NaN              NaN              NaN              NaN              NaN              NaN              NaN              NaN              NaN              NaN              NaN              NaN              NaN              NaN              NaN              NaN              NaN              NaN              NaN              NaN              NaN              NaN              NaN              NaN              NaN              NaN              NaN              NaN              NaN              NaN              NaN              NaN              NaN              NaN              NaN              NaN              NaN              NaN              NaN              NaN              NaN              NaN              NaN              NaN              NaN              NaN              NaN              NaN              NaN              NaN              NaN              NaN              NaN              NaN              NaN              NaN              NaN              NaN              NaN              NaN              NaN              NaN              NaN              NaN              NaN              NaN              NaN              NaN              NaN              NaN              NaN              NaN              NaN              NaN              NaN              NaN              NaN              NaN              NaN              NaN              NaN              NaN              NaN              NaN              NaN              NaN              NaN              NaN              NaN              NaN              NaN              NaN              NaN              NaN              NaN              NaN              NaN              NaN              NaN              NaN              NaN              NaN              NaN              NaN              NaN              NaN              NaN              NaN              NaN              NaN              NaN              NaN              NaN              NaN              NaN              NaN              NaN              NaN              NaN              NaN              NaN              NaN              NaN              NaN              NaN              NaN              NaN              NaN              NaN              NaN              NaN              NaN              NaN              NaN              NaN              NaN              NaN              NaN              NaN              NaN              NaN              NaN              NaN              NaN              NaN              NaN              NaN              NaN              NaN              NaN              NaN              NaN              NaN              NaN              NaN              NaN              NaN              NaN              NaN              NaN              NaN              NaN              NaN              NaN              NaN              NaN              NaN              NaN              NaN              NaN              NaN              NaN              NaN              NaN              NaN              NaN              NaN              NaN              NaN              NaN              NaN              NaN              NaN              NaN              NaN              NaN              NaN              NaN              NaN              NaN              NaN              NaN              NaN              NaN              NaN              NaN              NaN              NaN              NaN              NaN              NaN              NaN              NaN              NaN              NaN              NaN              NaN              NaN              NaN              NaN              NaN              NaN              NaN              NaN              NaN              NaN              NaN              NaN              NaN              NaN              NaN              NaN              NaN              NaN              NaN              NaN              NaN              NaN              NaN              NaN              NaN              NaN              NaN              NaN              NaN              NaN              NaN              NaN              NaN              NaN              NaN              NaN              NaN              NaN              NaN              NaN              NaN              NaN              NaN              NaN              NaN              NaN              NaN              NaN              NaN              NaN              NaN              NaN              NaN              NaN              NaN              NaN              NaN              NaN              NaN              NaN              NaN              NaN              NaN              NaN              NaN              NaN              NaN              NaN              NaN              NaN              NaN              NaN              NaN              NaN              NaN              NaN              NaN              NaN              NaN              NaN              NaN              NaN              NaN              NaN              NaN              NaN              NaN              NaN              NaN              NaN              NaN              NaN              NaN              NaN              NaN              NaN              NaN              NaN              NaN              NaN              NaN              NaN              NaN              NaN              NaN              NaN              NaN              NaN              NaN              NaN              NaN              NaN              NaN              NaN              NaN              NaN              NaN              NaN              NaN             