<VTKFile type="RectilinearGrid" version="0.1" format="ascii">
 <RectilinearGrid WholeExtent="1 120 1 18 1 18">
  <Piece Extent="1 120 1 18 1 18">
   <Coordinates>
    <DataArray type="Float32" Name="X_COORDINATES" NumberOfComponents="1" format="ascii">
  -3.06248199E-03  -3.00875423E-03  -2.95502646E-03  -2.90129869E-03  -2.84757116E-03  -2.79384339E-03  -2.74011563E-03  -2.68638786E-03  -2.63266009E-03  -2.57893233E-03  -2.52520456E-03  -2.47147679E-03  -2.41774903E-03  -2.36402126E-03  -2.31029349E-03  -2.25656573E-03  -2.20283796E-03  -2.14911019E-03  -2.09538243E-03  -2.04165466E-03  -1.98792689E-03  -1.93419924E-03  -1.88047148E-03  -1.82674371E-03  -1.77301595E-03  -1.71928818E-03  -1.66556041E-03  -1.61183265E-03  -1.55810488E-03  -1.50437711E-03  -1.45064935E-03  -1.39692170E-03  -1.34319393E-03  -1.28946616E-03  -1.23573840E-03  -1.18201063E-03  -1.12828286E-03  -1.07455510E-03  -1.02082733E-03  -9.67099622E-04  -9.13371856E-04  -8.59644089E-04  -8.05916323E-04  -7.52188556E-04  -6.98460848E-04  -6.44733082E-04  -5.91005315E-04  -5.37277549E-04  -4.83549811E-04  -4.29822045E-04  -3.76094278E-04  -3.22366541E-04  -2.68638774E-04  -2.14911022E-04  -1.61183270E-04  -1.07455511E-04  -5.37277556E-05   0.00000000       5.37277556E-05   1.07455511E-04   1.61183270E-04   2.14911022E-04   2.68638774E-04   3.22366541E-04   3.76094278E-04   4.29822045E-04   4.83549811E-04   5.37277549E-04   5.91005315E-04   6.44733082E-04   6.98460848E-04   7.52188556E-04   8.05916323E-04   8.59644089E-04   9.13371856E-04   9.67099622E-04   1.02082733E-03   1.07455510E-03   1.12828286E-03   1.18201063E-03   1.23573840E-03   1.28946616E-03   1.34319393E-03   1.39692170E-03   1.45064935E-03   1.50437711E-03   1.55810488E-03   1.61183265E-03   1.66556041E-03   1.71928818E-03   1.77301595E-03   1.82674371E-03   1.88047148E-03   1.93419924E-03   1.98792689E-03   2.04165466E-03   2.09538243E-03   2.14911019E-03   2.20283796E-03   2.25656573E-03   2.31029349E-03   2.36402126E-03   2.41774903E-03   2.47147679E-03   2.52520456E-03   2.57893233E-03   2.63266009E-03   2.68638786E-03   2.74011563E-03   2.79384339E-03   2.84757116E-03   2.90129869E-03   2.95502646E-03   3.00875423E-03   3.06248199E-03   3.11620976E-03   3.16993752E-03   3.22366529E-03   3.27739306E-03   3.33112082E-03
    </DataArray>
    <DataArray type="Float32" Name="Y_COORDINATES" NumberOfComponents="1" format="ascii">
  -4.56685928E-04  -4.02958161E-04  -3.49230424E-04  -2.95502658E-04  -2.41774906E-04  -1.88047139E-04  -1.34319387E-04  -8.05916352E-05  -2.68638778E-05   2.68638778E-05   8.05916352E-05   1.34319387E-04   1.88047139E-04   2.41774906E-04   2.95502658E-04   3.49230424E-04   4.02958161E-04   4.56685928E-04
    </DataArray>
    <DataArray type="Float32" Name="Z_COORDINATES" NumberOfComponents="1" format="ascii">
  -4.56685928E-04  -4.02958161E-04  -3.49230424E-04  -2.95502658E-04  -2.41774906E-04  -1.88047139E-04  -1.34319387E-04  -8.05916352E-05  -2.68638778E-05   2.68638778E-05   8.05916352E-05   1.34319387E-04   1.88047139E-04   2.41774906E-04   2.95502658E-04   3.49230424E-04   4.02958161E-04   4.56685928E-04
    </DataArray>
   </Coordinates>
   <PointData>
         <DataArray type="Float32" Name="Intensity" NumberOfComponents="1" format="ascii">
   1.00417197       1.01119125       1.01980746       1.02982152       1.04079020       1.05207312       1.06303847       1.07304609       1.08119810       1.08687317       1.09027278       1.09207237       1.09289289       1.09313393       1.09302604       1.09270179       1.09224212       1.09169900       1.09110725       1.09049058       1.08986616       1.08924544       1.08863688       1.08804584       1.08747625       1.08693099       1.08641100       1.08591712       1.08544946       1.08500779       1.08459139       1.08419943       1.08383143       1.08348596       1.08316231       1.08285916       1.08257580       1.08231115       1.08206403       1.08183408       1.08161986       1.08142078       1.08123636       1.08106542       1.08090758       1.08076215       1.08062863       1.08050668       1.08039534       1.08029485       1.08020461       1.08012390       1.08005297       1.07999122       1.07993877       1.07989526       1.07986045       1.07983446       1.07981718       1.07980871       1.07980883       1.07981777       1.07983541       1.07986224       1.07989812       1.07994330       1.07999814       1.08006299       1.08013785       1.08022344       1.08032012       1.08042812       1.08054829       1.08068073       1.08082652       1.08098602       1.08116007       1.08134937       1.08155465       1.08177698       1.08201694       1.08227563       1.08255363       1.08285224       1.08317208       1.08351409       1.08387852       1.08426630       1.08467758       1.08511186       1.08556855       1.08604646       1.08654296       1.08705413       1.08757472       1.08809638       1.08860803       1.08909309       1.08952868       1.08988106       1.09010017       1.09010780       1.08977556       1.08888042       1.08703291       1.08362460       1.07798648       1.06990564       1.05997765       1.04908466       1.03786457       1.02694142       1.01695025       1.00833559       1.00130224      0.995848536      0.991825759      0.989009082      0.987156630      0.986045241       1.01140499       1.02151012       1.03406072       1.04882729       1.06517637       1.08207369       1.09868872       1.11404884       1.12584496       1.13301528       1.13664162       1.13823771       1.13878763       1.13878906       1.13848352       1.13799691       1.13740110       1.13674128       1.13604736       1.13534021       1.13463438       1.13394022       1.13326490       1.13261318       1.13198841       1.13139224       1.13082600       1.13028967       1.12978303       1.12930572       1.12885666       1.12843490       1.12803936       1.12766874       1.12732184       1.12699759       1.12669480       1.12641215       1.12614882       1.12590373       1.12567568       1.12546396       1.12526786       1.12508643       1.12491894       1.12476468       1.12462318       1.12449396       1.12437630       1.12426996       1.12417424       1.12408924       1.12401426       1.12394917       1.12389374       1.12384796       1.12381148       1.12378430       1.12376642       1.12375760       1.12375808       1.12376785       1.12378705       1.12381577       1.12385416       1.12390268       1.12396133       1.12403047       1.12411058       1.12420201       1.12430513       1.12442064       1.12454879       1.12469065       1.12484670       1.12501729       1.12520385       1.12540674       1.12562704       1.12586582       1.12612379       1.12640238       1.12670231       1.12702477       1.12737083       1.12774158       1.12813771       1.12856007       1.12900901       1.12948501       1.12998760       1.13051546       1.13106716       1.13163912       1.13222694       1.13282323       1.13341832       1.13399804       1.13454211       1.13502181       1.13539350       1.13558781       1.13548350       1.13484681       1.13319409       1.12956131       1.12245464       1.11078119       1.09554780       1.07903838       1.06223786       1.04596198       1.03123379       1.01868951       1.00856638       1.00079596      0.995101810      0.991114020      0.988458693      0.986806750       1.02014387       1.03419554       1.05190122       1.07305741       1.09684122       1.12138855       1.14566565       1.16919458       1.18587625       1.19377840       1.19653738       1.19721925       1.19710445       1.19663858       1.19599283       1.19524622       1.19444323       1.19361186       1.19277251       1.19193876       1.19112170       1.19032872       1.18956482       1.18883324       1.18813634       1.18747509       1.18684947       1.18625927       1.18570364       1.18518150       1.18469179       1.18423283       1.18380320       1.18340135       1.18302608       1.18267572       1.18234897       1.18204451       1.18176115       1.18149769       1.18125296       1.18102586       1.18081558       1.18062127       1.18044198       1.18027711       1.18012607       1.17998791       1.17986250       1.17974901       1.17964709       1.17955637       1.17947674       1.17940760       1.17934883       1.17930031       1.17926168       1.17923307       1.17921424       1.17920530       1.17920625       1.17921710       1.17923808       1.17926931       1.17931092       1.17936325       1.17942643       1.17950106       1.17958736       1.17968583       1.17979717       1.17992163       1.18006015       1.18021321       1.18038154       1.18056607       1.18076789       1.18098772       1.18122673       1.18148589       1.18176651       1.18206966       1.18239689       1.18274939       1.18312871       1.18353581       1.18397212       1.18443882       1.18493676       1.18546689       1.18602920       1.18662345       1.18724895       1.18790329       1.18858325       1.18928385       1.18999815       1.19071555       1.19142258       1.19210041       1.19272172       1.19324446       1.19359350       1.19360530       1.19285047       1.19008112       1.18227589       1.16578400       1.14242613       1.11828423       1.09388471       1.07021368       1.04911768       1.03142679       1.01735425       1.00669551      0.998967350      0.993584156      0.989989698      0.987715185       1.03023529       1.04916584       1.07344532       1.10301006       1.13702917       1.17171395       1.20224726       1.23347330       1.26989281       1.28089285       1.28141081       1.28028023       1.27907801       1.27791953       1.27679181       1.27568376       1.27459407       1.27352667       1.27248669       1.27147949       1.27051008       1.26958191       1.26869726       1.26785731       1.26706278       1.26631331       1.26560795       1.26494551       1.26432419       1.26374233       1.26319814       1.26268959       1.26221466       1.26177168       1.26135850       1.26097369       1.26061535       1.26028192       1.25997198       1.25968421       1.25941718       1.25916958       1.25894094       1.25872946       1.25853467       1.25835574       1.25819182       1.25804222       1.25790620       1.25778329       1.25767314       1.25757539       1.25748909       1.25741458       1.25735128       1.25729907       1.25725770       1.25722718       1.25720727       1.25719810       1.25719953       1.25721180       1.25723529       1.25726962       1.25731540       1.25737274       1.25744212       1.25752389       1.25761843       1.25772643       1.25784838       1.25798476       1.25813675       1.25830472       1.25848973       1.25869250       1.25891459       1.25915694       1.25942051       1.25970697       1.26001763       1.26035392       1.26071775       1.26111054       1.26153398       1.26199019       1.26248062       1.26300728       1.26357150       1.26417506       1.26481891       1.26550400       1.26623058       1.26699829       1.26780581       1.26865077       1.26952994       1.27043903       1.27137280       1.27232683       1.27329838       1.27429044       1.27531660       1.27639484       1.27742589       1.27689636       1.26611471       1.22997952       1.19884109       1.16848934       1.13404036       1.10018659       1.07071304       1.04646277       1.02751040       1.01339352       1.00329697      0.996326745      0.991684437      0.988726258       1.04138505       1.06621170       1.09880495       1.13926756       1.18520725       1.23111868       1.27409708       1.30326140       1.42842269       1.44350255       1.43853188       1.43470061       1.43197620       1.42978787       1.42788875       1.42616451       1.42456353       1.42306101       1.42164469       1.42030823       1.41904819       1.41786158       1.41674662       1.41570055       1.41472065       1.41380441       1.41294849       1.41214991       1.41140509       1.41071141       1.41006553       1.40946436       1.40890515       1.40838504       1.40790164       1.40745258       1.40703535       1.40664816       1.40628898       1.40595603       1.40564764       1.40536237       1.40509903       1.40485597       1.40463233       1.40442705       1.40423930       1.40406811       1.40391266       1.40377247       1.40364671       1.40353525       1.40343726       1.40335250       1.40328074       1.40322161       1.40317488       1.40314078       1.40311861       1.40310895       1.40311146       1.40312636       1.40315378       1.40319407       1.40324736       1.40331411       1.40339470       1.40348947       1.40359926       1.40372455       1.40386593       1.40402436       1.40420091       1.40439618       1.40461171       1.40484822       1.40510762       1.40539086       1.40569997       1.40603650       1.40640247       1.40679967       1.40723038       1.40769732       1.40820265       1.40874934       1.40933990       1.40997744       1.41066480       1.41140532       1.41220164       1.41305697       1.41397393       1.41495502       1.41600287       1.41711962       1.41830814       1.41957211       1.42091835       1.42235923       1.42392004       1.42565382       1.42767632       1.43023551       1.43391287       1.43883300       1.42413199       1.29962814       1.27041316       1.22779226       1.18214691       1.13644421       1.09612536       1.06358540       1.03873730       1.02062345       1.00788677      0.999197245      0.993445396      0.989776492       1.05309951       1.08484709       1.12789476       1.18088174       1.23634505       1.29913604       1.43010092       1.44313657       1.44767511       1.43360162       1.42379010       1.41826570       1.41455448       1.41170037       1.40932965       1.40726089       1.40540040       1.40369809       1.40212536       1.40066457       1.39930499       1.39803803       1.39685750       1.39575779       1.39473379       1.39378107       1.39289498       1.39207149       1.39130592       1.39059496       1.38993478       1.38932168       1.38875234       1.38822412       1.38773382       1.38727891       1.38685715       1.38646603       1.38610375       1.38576818       1.38545763       1.38517082       1.38490593       1.38466203       1.38443768       1.38423193       1.38404357       1.38387215       1.38371670       1.38357639       1.38345087       1.38333952       1.38324165       1.38315725       1.38308561       1.38302696       1.38298047       1.38294673       1.38292515       1.38291585       1.38291895       1.38293433       1.38296235       1.38300323       1.38305736       1.38312471       1.38320613       1.38330209       1.38341296       1.38353932       1.38368225       1.38384235       1.38402081       1.38421834       1.38443625       1.38467598       1.38493872       1.38522625       1.38554001       1.38588214       1.38625455       1.38665950       1.38709950       1.38757718       1.38809526       1.38865697       1.38926566       1.38992453       1.39063752       1.39140832       1.39224148       1.39314103       1.39411163       1.39515793       1.39628577       1.39750123       1.39881277       1.40023148       1.40177488       1.40347195       1.40537310       1.40757167       1.41025007       1.41378367       1.41914248       1.42884672       1.44291210       1.43844259       1.42574751       1.29576945       1.23319769       1.17801428       1.12526298       1.08230257       1.05053318       1.02798796       1.01245058       1.00200117      0.995145738      0.990785539       1.06435680       1.10323834       1.15762639       1.22411501       1.29793608       1.43780601       1.44098592       1.35489082       1.31022155       1.29129696       1.28145146       1.27560949       1.27169871       1.26878536       1.26644278       1.26445425       1.26270390       1.26112688       1.25968575       1.25835752       1.25712729       1.25598514       1.25492299       1.25393498       1.25301611       1.25216150       1.25136673       1.25062799       1.24994159       1.24930370       1.24871135       1.24816120       1.24765015       1.24717593       1.24673569       1.24632704       1.24594820       1.24559677       1.24527133       1.24496973       1.24469078       1.24443281       1.24419487       1.24397540       1.24377382       1.24358869       1.24341953       1.24326551       1.24312568       1.24299955       1.24288666       1.24278653       1.24269855       1.24262273       1.24255860       1.24250579       1.24246430       1.24243402       1.24241459       1.24240649       1.24240923       1.24242318       1.24244857       1.24248564       1.24253440       1.24259520       1.24266863       1.24275506       1.24285483       1.24296880       1.24309754       1.24324191       1.24340248       1.24358022       1.24377656       1.24399221       1.24422872       1.24448752       1.24476981       1.24507737       1.24541247       1.24577665       1.24617207       1.24660134       1.24706697       1.24757135       1.24811816       1.24870980       1.24935019       1.25004268       1.25079107       1.25159979       1.25247335       1.25341678       1.25443625       1.25553954       1.25673676       1.25804293       1.25948143       1.26108980       1.26293302       1.26512718       1.26788890       1.27164602       1.27733839       1.28704572       1.30579507       1.35005665       1.43597710       1.43350720       1.29474425       1.22123134       1.15504086       1.10076249       1.06186020       1.03486240       1.01659656       1.00449383      0.996635139      0.991662085       1.07337284       1.11761284       1.17966795       1.26884866       1.43540525       1.46770859       1.36363912       1.17491937       1.08628392       1.05580008       1.04705966       1.04168391       1.03801608       1.03534091       1.03324354       1.03150356       1.03000069       1.02866697       1.02746165       1.02636003       1.02534604       1.02440822       1.02353930       1.02273273       1.02198350       1.02128768       1.02064109       1.02004039       1.01948237       1.01896393       1.01848257       1.01803565       1.01762044       1.01723516       1.01687753       1.01654565       1.01623774       1.01595223       1.01568770       1.01544261       1.01521587       1.01500630       1.01481307       1.01463473       1.01447093       1.01432049       1.01418304       1.01405787       1.01394439       1.01384187       1.01375020       1.01366889       1.01359761       1.01353610       1.01348400       1.01344121       1.01340771       1.01338315       1.01336765       1.01336122       1.01336372       1.01337552       1.01339638       1.01342678       1.01346684       1.01351666       1.01357687       1.01364744       1.01372921       1.01382244       1.01392758       1.01404560       1.01417685       1.01432204       1.01448250       1.01465881       1.01485193       1.01506329       1.01529384       1.01554525       1.01581883       1.01611626       1.01643932       1.01679027       1.01717067       1.01758313       1.01803005       1.01851416       1.01903820       1.01960564       1.02021945       1.02088380       1.02160287       1.02238131       1.02322614       1.02414489       1.02514911       1.02625465       1.02748752       1.02888787       1.03052437       1.03251731       1.03508687       1.03864694       1.04390919       1.05252647       1.08275509       1.17030764       1.35808015       1.46265328       1.43141901       1.26615095       1.17712176       1.11517060       1.07091856       1.04031944       1.01981997       1.00639272      0.997752607      0.992313802       1.07834494       1.12512028       1.18998969       1.28588188       1.45946085       1.45876813       1.32706845       1.09666622      0.992363214      0.956911922      0.948423386      0.943274975      0.939681768      0.937053800      0.935005665      0.933320701      0.931878328      0.930608749      0.929470360      0.928436697      0.927490473      0.926619470      0.925815523      0.925071537      0.924382329      0.923743546      0.923151076      0.922601700      0.922092021      0.921618879      0.921180129      0.920772970      0.920395315      0.920044839      0.919719636      0.919418216      0.919138670      0.918879449      0.918639421      0.918417156      0.918211579      0.918021560      0.917846382      0.917684913      0.917536378      0.917400241      0.917275846      0.917162478      0.917059839      0.916967154      0.916884243      0.916810691      0.916746378      0.916690648      0.916643798      0.916605115      0.916575134      0.916553020      0.916539192      0.916533649      0.916536272      0.916547060      0.916566312      0.916594207      0.916630864      0.916676342      0.916731298      0.916795790      0.916870356      0.916955292      0.917051196      0.917158723      0.917278409      0.917410851      0.917557120      0.917717874      0.917894244      0.918087006      0.918297529      0.918527126      0.918777168      0.919049144      0.919344723      0.919665933      0.920014620      0.920392990      0.920803368      0.921248555      0.921731293      0.922254801      0.922822475      0.923438430      0.924107015      0.924833715      0.925625443      0.926491022      0.927442670      0.928497791      0.929683626      0.931042075      0.932643056      0.934607327      0.937150478      0.940656543      0.945707679      0.954080224      0.989228189       1.09222889       1.32125747       1.45338607       1.45523906       1.28324318       1.18745399       1.12268460       1.07590723       1.04336083       1.02160060       1.00742745      0.998354793      0.992662370       1.07834494       1.12512016       1.18998957       1.28588188       1.45946074       1.45876813       1.32706833       1.09666622      0.992363274      0.956911981      0.948423505      0.943275094      0.939681768      0.937053978      0.935005724      0.933320761      0.931878388      0.930608809      0.929470539      0.928436875      0.927490592      0.926619589      0.925815582      0.925071597      0.924382389      0.923743725      0.923151195      0.922601819      0.922092140      0.921618998      0.921180248      0.920773089      0.920395315      0.920044899      0.919719756      0.919418216      0.919138730      0.918879569      0.918639421      0.918417215      0.918211699      0.918021679      0.917846441      0.917685032      0.917536557      0.917400301      0.917275906      0.917162597      0.917059898      0.916967213      0.916884303      0.916810811      0.916746438      0.916690767      0.916643858      0.916605234      0.916575193      0.916553140      0.916539311      0.916533709      0.916536331      0.916547239      0.916566432      0.916594326      0.916630924      0.916676402      0.916731358      0.916795850      0.916870415      0.916955292      0.917051256      0.917158842      0.917278528      0.917411029      0.917557240      0.917717993      0.917894244      0.918087065      0.918297708      0.918527246      0.918777287      0.919049263      0.919344783      0.919666052      0.920014739      0.920393050      0.920803487      0.921248674      0.921731353      0.922254920      0.922822535      0.923438489      0.924107075      0.924833775      0.925625563      0.926491022      0.927442670      0.928497910      0.929683685      0.931042194      0.932643175      0.934607387      0.937150598      0.940656662      0.945707858      0.954080343      0.989228368       1.09222889       1.32125747       1.45338595       1.45523882       1.28324306       1.18745387       1.12268460       1.07590723       1.04336083       1.02160060       1.00742745      0.998354793      0.992662370       1.07337284       1.11761284       1.17966783       1.26884866       1.43540525       1.46770859       1.36363912       1.17491937       1.08628380       1.05580008       1.04705966       1.04168379       1.03801608       1.03534091       1.03324354       1.03150356       1.03000069       1.02866685       1.02746153       1.02636003       1.02534592       1.02440822       1.02353919       1.02273262       1.02198350       1.02128768       1.02064097       1.02004027       1.01948237       1.01896393       1.01848257       1.01803553       1.01762044       1.01723504       1.01687741       1.01654541       1.01623774       1.01595223       1.01568758       1.01544261       1.01521587       1.01500618       1.01481295       1.01463473       1.01447082       1.01432049       1.01418293       1.01405787       1.01394439       1.01384187       1.01375020       1.01366878       1.01359761       1.01353598       1.01348400       1.01344121       1.01340771       1.01338303       1.01336765       1.01336110       1.01336372       1.01337540       1.01339638       1.01342666       1.01346672       1.01351666       1.01357675       1.01364744       1.01372910       1.01382232       1.01392758       1.01404548       1.01417685       1.01432204       1.01448250       1.01465869       1.01485193       1.01506317       1.01529384       1.01554513       1.01581883       1.01611626       1.01643932       1.01679015       1.01717067       1.01758301       1.01803005       1.01851404       1.01903832       1.01960564       1.02021945       1.02088368       1.02160275       1.02238142       1.02322602       1.02414489       1.02514899       1.02625477       1.02748740       1.02888775       1.03052425       1.03251731       1.03508687       1.03864694       1.04390907       1.05252635       1.08275509       1.17030764       1.35808015       1.46265328       1.43141901       1.26615095       1.17712176       1.11517060       1.07091856       1.04031944       1.01981986       1.00639260      0.997752607      0.992313743       1.06435680       1.10323834       1.15762639       1.22411501       1.29793608       1.43780601       1.44098592       1.35489082       1.31022167       1.29129696       1.28145146       1.27560937       1.27169859       1.26878524       1.26644278       1.26445425       1.26270378       1.26112688       1.25968575       1.25835752       1.25712729       1.25598514       1.25492299       1.25393498       1.25301611       1.25216138       1.25136662       1.25062788       1.24994159       1.24930370       1.24871135       1.24816120       1.24765015       1.24717581       1.24673557       1.24632704       1.24594820       1.24559677       1.24527109       1.24496973       1.24469078       1.24443281       1.24419487       1.24397540       1.24377382       1.24358869       1.24341953       1.24326551       1.24312568       1.24299955       1.24288666       1.24278653       1.24269855       1.24262273       1.24255860       1.24250579       1.24246430       1.24243391       1.24241459       1.24240637       1.24240923       1.24242318       1.24244857       1.24248564       1.24253440       1.24259520       1.24266863       1.24275482       1.24285483       1.24296868       1.24309754       1.24324179       1.24340248       1.24358034       1.24377644       1.24399221       1.24422872       1.24448740       1.24476969       1.24507737       1.24541247       1.24577653       1.24617207       1.24660122       1.24706674       1.24757147       1.24811804       1.24870980       1.24935019       1.25004256       1.25079107       1.25159967       1.25247335       1.25341666       1.25443625       1.25553942       1.25673664       1.25804293       1.25948143       1.26108980       1.26293302       1.26512706       1.26788867       1.27164590       1.27733839       1.28704572       1.30579507       1.35005653       1.43597710       1.43350732       1.29474437       1.22123158       1.15504098       1.10076249       1.06186008       1.03486240       1.01659656       1.00449371      0.996635079      0.991662025       1.05309951       1.08484721       1.12789476       1.18088162       1.23634493       1.29913592       1.43010080       1.44313657       1.44767511       1.43360162       1.42379010       1.41826570       1.41455436       1.41170037       1.40932977       1.40726101       1.40540040       1.40369809       1.40212536       1.40066481       1.39930499       1.39803803       1.39685738       1.39575779       1.39473379       1.39378107       1.39289498       1.39207137       1.39130604       1.39059496       1.38993478       1.38932168       1.38875234       1.38822412       1.38773394       1.38727891       1.38685715       1.38646603       1.38610375       1.38576818       1.38545775       1.38517070       1.38490605       1.38466203       1.38443768       1.38423181       1.38404357       1.38387215       1.38371670       1.38357627       1.38345087       1.38333941       1.38324177       1.38315725       1.38308561       1.38302696       1.38298059       1.38294673       1.38292503       1.38291585       1.38291883       1.38293421       1.38296235       1.38300323       1.38305736       1.38312483       1.38320625       1.38330197       1.38341284       1.38353944       1.38368225       1.38384235       1.38402081       1.38421834       1.38443625       1.38467598       1.38493872       1.38522625       1.38554001       1.38588202       1.38625455       1.38665950       1.38709950       1.38757706       1.38809526       1.38865709       1.38926566       1.38992441       1.39063740       1.39140832       1.39224136       1.39314091       1.39411151       1.39515793       1.39628577       1.39750123       1.39881265       1.40023148       1.40177488       1.40347171       1.40537310       1.40757167       1.41024995       1.41378355       1.41914237       1.42884660       1.44291210       1.43844247       1.42574751       1.29576933       1.23319757       1.17801416       1.12526286       1.08230257       1.05053306       1.02798796       1.01245058       1.00200105      0.995145738      0.990785480       1.04138505       1.06621170       1.09880495       1.13926756       1.18520725       1.23111868       1.27409720       1.30326128       1.42842269       1.44350255       1.43853188       1.43470073       1.43197620