<VTKFile type="RectilinearGrid" version="0.1" format="ascii">
 <RectilinearGrid WholeExtent="1 120 1 18 1 18">
  <Piece Extent="1 120 1 18 1 18">
   <Coordinates>
    <DataArray type="Float32" Name="X_COORDINATES" NumberOfComponents="1" format="ascii">
  -3.06248199E-03  -3.00875423E-03  -2.95502646E-03  -2.90129869E-03  -2.84757116E-03  -2.79384339E-03  -2.74011563E-03  -2.68638786E-03  -2.63266009E-03  -2.57893233E-03  -2.52520456E-03  -2.47147679E-03  -2.41774903E-03  -2.36402126E-03  -2.31029349E-03  -2.25656573E-03  -2.20283796E-03  -2.14911019E-03  -2.09538243E-03  -2.04165466E-03  -1.98792689E-03  -1.93419924E-03  -1.88047148E-03  -1.82674371E-03  -1.77301595E-03  -1.71928818E-03  -1.66556041E-03  -1.61183265E-03  -1.55810488E-03  -1.50437711E-03  -1.45064935E-03  -1.39692170E-03  -1.34319393E-03  -1.28946616E-03  -1.23573840E-03  -1.18201063E-03  -1.12828286E-03  -1.07455510E-03  -1.02082733E-03  -9.67099622E-04  -9.13371856E-04  -8.59644089E-04  -8.05916323E-04  -7.52188556E-04  -6.98460848E-04  -6.44733082E-04  -5.91005315E-04  -5.37277549E-04  -4.83549811E-04  -4.29822045E-04  -3.76094278E-04  -3.22366541E-04  -2.68638774E-04  -2.14911022E-04  -1.61183270E-04  -1.07455511E-04  -5.37277556E-05   0.00000000       5.37277556E-05   1.07455511E-04   1.61183270E-04   2.14911022E-04   2.68638774E-04   3.22366541E-04   3.76094278E-04   4.29822045E-04   4.83549811E-04   5.37277549E-04   5.91005315E-04   6.44733082E-04   6.98460848E-04   7.52188556E-04   8.05916323E-04   8.59644089E-04   9.13371856E-04   9.67099622E-04   1.02082733E-03   1.07455510E-03   1.12828286E-03   1.18201063E-03   1.23573840E-03   1.28946616E-03   1.34319393E-03   1.39692170E-03   1.45064935E-03   1.50437711E-03   1.55810488E-03   1.61183265E-03   1.66556041E-03   1.71928818E-03   1.77301595E-03   1.82674371E-03   1.88047148E-03   1.93419924E-03   1.98792689E-03   2.04165466E-03   2.09538243E-03   2.14911019E-03   2.20283796E-03   2.25656573E-03   2.31029349E-03   2.36402126E-03   2.41774903E-03   2.47147679E-03   2.52520456E-03   2.57893233E-03   2.63266009E-03   2.68638786E-03   2.74011563E-03   2.79384339E-03   2.84757116E-03   2.90129869E-03   2.95502646E-03   3.00875423E-03   3.06248199E-03   3.11620976E-03   3.16993752E-03   3.22366529E-03   3.27739306E-03   3.33112082E-03
    </DataArray>
    <DataArray type="Float32" Name="Y_COORDINATES" NumberOfComponents="1" format="ascii">
  -4.56685928E-04  -4.02958161E-04  -3.49230424E-04  -2.95502658E-04  -2.41774906E-04  -1.88047139E-04  -1.34319387E-04  -8.05916352E-05  -2.68638778E-05   2.68638778E-05   8.05916352E-05   1.34319387E-04   1.88047139E-04   2.41774906E-04   2.95502658E-04   3.49230424E-04   4.02958161E-04   4.56685928E-04
    </DataArray>
    <DataArray type="Float32" Name="Z_COORDINATES" NumberOfComponents="1" format="ascii">
  -4.56685928E-04  -4.02958161E-04  -3.49230424E-04  -2.95502658E-04  -2.41774906E-04  -1.88047139E-04  -1.34319387E-04  -8.05916352E-05  -2.68638778E-05   2.68638778E-05   8.05916352E-05   1.34319387E-04   1.88047139E-04   2.41774906E-04   2.95502658E-04   3.49230424E-04   4.02958161E-04   4.56685928E-04
    </DataArray>
   </Coordinates>
   <PointData>
         <DataArray type="Float32" Name="Intensity" NumberOfComponents="1" format="ascii">
   2.37394094       2.65653491       2.96703029       3.30356407       3.66617799       4.05371380       4.44703341       4.76803446       4.87944412       4.72216702       4.42355204       4.17232656       4.01965809       3.91160107       3.82580113       3.76440430       3.71169162       3.65145254       3.57879066       3.49331880       3.39729023       3.29678178       3.20033693       3.11250091       3.03087592       2.95214939       2.87761641       2.81093597       2.75238895       2.69975448       2.65305591       2.61307168       2.57854962       2.54845047       2.52326727       2.50283003       2.48589206       2.47194386       2.46094275       2.45219564       2.44522691       2.44012451       2.43643236       2.43350887       2.43145704       2.43029690       2.42948246       2.42891335       2.42884016       2.42894626       2.42896938       2.42919564       2.42955828       2.42972946       2.42991090       2.43022585       2.43035150       2.43035364       2.43049884       2.43054557       2.43039632       2.43037939       2.43040967       2.43026471       2.43025708       2.43049288       2.43068457       2.43106580       2.43198180       2.43319726       2.43478179       2.43729186       2.44073439       2.44497800       2.45065951       2.45826864       2.46769333       2.47936940       2.49402380       2.51170421       2.53288031       2.55879402       2.58960366       2.62477064       2.66534758       2.71260452       2.76570249       2.82459664       2.89154863       2.96618462       3.04473829       3.12604022       3.21350026       3.30934119       3.40884352       3.50349140       3.58732295       3.65816760       3.71651840       3.76735997       3.82676363       3.91018176       4.01550674       4.16526556       4.41324472       4.70836020       4.86280727       4.75010157       4.42925882       4.03688955       3.65055919       3.28916216       2.95376134       2.64426947       2.36251426       2.11108899       1.89186764       1.70523643       1.54995573       1.42343307       2.70618582       3.06543636       3.46089888       3.89181781       4.36524534       4.90049362       5.51931667       6.12561226       6.38370514       6.09220648       5.54231739       5.17261600       4.98619413       4.77314997       4.56762218       4.46933413       4.43134260       4.38019276       4.29264832       4.17817163       4.05225325       3.91979003       3.79410410       3.68799281       3.59157181       3.49174213       3.39344597       3.30871844       3.23780966       3.17372775       3.11603308       3.06749201       3.02607608       2.98925567       2.95905066       2.93593121       2.91631436       2.89968228       2.88751745       2.87796354       2.86977315       2.86435509       2.86105537       2.85789132       2.85555720       2.85494280       2.85449553       2.85377121       2.85408783       2.85475636       2.85470676       2.85506225       2.85594368       2.85611939       2.85623908       2.85693598       2.85708284       2.85685730       2.85723138       2.85731316       2.85679698       2.85683703       2.85692263       2.85630202       2.85616612       2.85653687       2.85624194       2.85625458       2.85739279       2.85835791       2.85945916       2.86232424       2.86615062       2.87011147       2.87619352       2.88520074       2.89561534       2.90854764       2.92603230       2.94660807       2.97060061       3.00168467       3.03944731       3.08163881       3.13082623       3.18919706       3.25383615       3.32515240       3.41028094       3.50869727       3.60808301       3.70391774       3.80965424       3.93479753       4.06611109       4.19029093       4.30274153       4.38805962       4.43698692       4.47342014       4.57032728       4.77317047       4.98248625       5.16539001       5.53136730       6.07663631       6.36428595       6.10484076       5.49931288       4.88205194       4.34841537       3.87645912       3.44686317       3.05257392       2.69432282       2.37539482       2.09836197       1.86372900       1.66973543       1.51279545       3.08548355       3.53551316       4.02859974       4.56055880       5.13870764       5.79359341       6.62699127       7.64953279       8.17452717       7.62698650       6.66356754       6.28985357       6.20248413       5.74555254       5.21460295       5.06528521       5.13427639       5.14038420       5.01379871       4.84261847       4.68188095       4.49917746       4.33391666       4.22491312       4.11900997       3.98873687       3.86198759       3.75599003       3.67189646       3.60259199       3.53388953       3.47247005       3.42719007       3.38435626       3.34655547       3.32400322       3.30340457       3.28169513       3.26964641       3.26129627       3.25050426       3.24474525       3.24400973       3.24035382       3.23649383       3.23781729       3.23851252       3.23628902       3.23754144       3.23998070       3.23877263       3.23906279       3.24175429       3.24133039       3.24071503       3.24294186       3.24295259       3.24150729       3.24301434       3.24342513       3.24136591       3.24199939       3.24285555       3.24051142       3.24028063       3.24192905       3.24004960       3.23899484       3.24167705       3.24177623       3.24091196       3.24526882       3.24988580       3.25138807       3.25771070       3.26962733       3.27917624       3.29183936       3.31453896       3.33659792       3.35992646       3.39861298       3.44304729       3.48914456       3.55094171       3.62069225       3.69060874       3.77492762       3.88191009       4.00902557       4.13801765       4.24284840       4.35179996       4.51673174       4.69834566       4.85714483       5.02567291       5.14919472       5.14003134       5.07031393       5.22047377       5.74851322       6.19950199       6.28248692       6.65290356       7.61053276       8.15262318       7.62615204       6.60508680       5.77379179       5.12078667       4.54424810       4.01373863       3.52197909       3.07312155       2.67378092       2.32846308       2.03799939       1.79976130       1.60863578       3.51497126       4.07705593       4.68876934       5.33583307       6.01412106       6.71018982       7.42813015       8.50916195       9.73533440       8.61834812       6.96670961       7.16282749       7.47603130       6.43486643       4.95182991       4.80846262       5.41917753       5.50881481       5.13493013       4.93929052       4.75509548       4.39042950       4.24405718       4.24578571       4.08334875       3.90795636       3.80694366       3.66211796       3.55629516       3.54537892       3.46715856       3.36112690       3.34912062       3.31439757       3.24588227       3.24542117       3.23957610       3.19526124       3.19021630       3.19843888       3.17519212       3.16701603       3.18307233       3.17515707       3.16085577       3.17515349       3.17936873       3.16441321       3.17299294       3.18403816       3.17095327       3.17202711       3.18628478       3.17787957       3.17194653       3.18587565       3.18346500       3.17211962       3.18263555       3.18684316       3.17297816       3.17749214       3.18727708       3.17409682       3.17152166       3.18526459       3.17610955       3.16646075       3.18128061       3.17943788       3.16502452       3.17855334       3.18879366       3.17376304       3.18070507       3.20596385       3.20042849       3.20404124       3.24911213       3.25896311       3.25841904       3.32632232       3.36617255       3.37852049       3.48207450       3.56409407       3.57624650       3.67909575       3.82781982       3.93281031       4.10304689       4.26279163       4.26518822       4.41116858       4.77416897       4.96042347       5.15268230       5.51956844       5.42668343       4.81698799       4.96587515       6.44785690       7.47872829       7.15792608       6.96247053       8.60793781       9.71513844       8.48579502       7.40572500       6.68969345       5.99524832       5.31848335       4.67293453       4.06271315       3.50201488       3.00464940       2.57832742       2.22367549       1.93604171       1.70768595       3.99871087       4.71213436       5.48940659       6.29409933       7.07088804       7.85110521       8.49323273       8.67682362       11.2899256       9.54546165       6.88225937       8.50656509       9.44692612       8.24110985       5.55362082       5.36369133       6.58184910       6.56364584       6.05081987       5.83129120       5.42900991       4.93473291       4.78735304       4.75875568       4.57110405       4.41558075       4.20309925       4.01743746       3.98252296       3.91703367       3.80510068       3.74802876       3.70239735       3.63470268       3.59979725       3.60217810       3.56929088       3.53237152       3.54438901       3.53912425       3.50840640       3.51793671       3.53408504       3.51332617       3.50859141       3.53037620       3.52451253       3.51144814       3.52915168       3.53513026       3.51927137       3.52714419       3.54044890       3.52863741       3.52599716       3.54058099       3.53663826       3.52568388       3.53587556       3.54138446       3.52710080       3.52833366       3.54112053       3.52929664       3.52011943       3.53596306       3.53224158       3.51408148       3.52616119       3.53446317       3.51371336       3.51695704       3.53952456       3.52583051       3.51494408       3.54659033       3.55584836       3.54341030       3.57951689       3.61668372       3.61571717       3.64860153       3.72021627       3.77025938       3.82416272       3.93606257       4.00703669       4.04006100       4.22571611       4.44608784       4.59788084       4.77715206       4.81127787       4.96285725       5.45238066       5.85463905       6.07237148       6.57338667       6.58483219       5.37118769       5.56490231       8.24834156       9.44349289       8.49621487       6.88316631       9.53934288       11.2656755       8.65228558       8.47204781       7.83102512       7.05090904       6.27533054       5.47226095       4.69675350       3.98503470       3.36324191       2.84045076       2.41345048       2.07253337       1.80532944       4.53258896       5.46861935       6.51404428       7.51213837       8.50271320       10.0358429       13.7060080       10.6473064       9.56056690       8.94325924       8.70446968       8.41290092       8.23051643       7.97223377       8.39710426       8.30121136       7.26994085       7.25637865       7.57114601       7.08389330       6.78745651       6.75782299       6.31988001       6.01954317       5.98264980       5.73806858       5.48182917       5.42106867       5.27344465       5.04811954       5.01006603       4.97903824       4.79978848       4.74050236       4.77979136       4.67890215       4.59498310       4.64784670       4.62307501       4.53635168       4.57517862       4.60034609       4.52338076       4.53611612       4.58866405       4.53648567       4.52332830       4.57825041       4.55383015       4.52464104       4.56909323       4.56912374       4.53290081       4.55986023       4.57820320       4.54342318       4.55107832       4.58107996       4.55402231       4.54234838       4.57772255       4.56412363       4.53439808       4.56870651       4.57431459       4.52940655       4.55449867       4.58441114       4.53209591       4.53977156       4.59602547       4.54923296       4.53111935       4.60979700       4.59288740       4.55040312       4.63537836       4.66942883       4.61698341       4.69580555       4.80402660       4.76969099       4.82211399       5.00435448       5.04397726       5.07602119       5.29731083       5.45424175       5.51371384       5.75786686       6.00694561       6.05013466       6.33534813       6.76913738       6.80727959       7.08872318       7.56495714       7.25934505       7.26647758       8.28552914       8.38026428       7.95113564       8.20923615       8.39990997       8.69141102       8.92579269       9.53289795       10.6188602       13.6783209       10.0130625       8.48097134       7.49148130       6.49506474       5.45192862       4.51809740       3.73571682       3.10084105       2.59604836       2.20091176       1.89566100       5.07446098       6.30770826       7.75728941       8.98418522       10.7098751       15.0613890       11.2325706       8.42636108       9.48754787       8.74863911       8.89495468       9.09526920       8.34743881       8.31214523       9.42097282       9.49525070       8.74642944       9.09133720       9.28842640       8.78013992       8.63018703       8.63116169       8.17831612       7.88566208       7.87026930       7.56774902       7.28540277       7.21018314       7.02745247       6.80636501       6.71042538       6.64054775       6.48891211       6.38140011       6.37318182       6.29363298       6.20313501       6.21364689       6.17716122       6.11147404       6.13086414       6.12071419       6.07262945       6.08995962       6.09627295       6.06294966       6.07392502       6.08852482       6.06610298       6.06915140       6.08643246       6.07449675       6.07055187       6.08399534       6.08193445       6.07517576       6.08009672       6.08515644       6.08130074       6.07596016       6.08272362       6.08681488       6.07386255       6.07671165       6.09080267       6.07549381       6.07085037       6.09495020       6.08389902       6.07151747       6.10566759       6.10427284       6.08632755       6.13438272       6.15039349       6.13130760       6.19601250       6.23901844       6.23023319       6.31835365       6.40363836       6.41511583       6.51951933       6.67500591       6.74871635       6.84034109       7.06134510       7.24918365       7.32038116       7.59567022       7.90172577       7.91424513       8.19619083       8.64905071       8.64423561       8.78104305       9.28102112       9.07932854       8.72642326       9.46511269       9.38780403       8.27144909       8.30319309       9.07051849       8.86847019       8.72212791       9.48150539       8.41823006       11.2124453       15.0229282       10.6831560       8.96161652       7.73627949       6.28966951       5.05920124       4.08902311       3.33634400       2.75598407       2.31094861       1.97192001       5.52267122       7.02729607       8.82213974       10.4983740       14.4989815       12.1146441       5.58128643       9.76121902       13.3042355       8.58557701       8.30442429       7.69010973       7.61769533       8.63389874       9.25912476       9.04310989       8.90755558       9.78876209       9.87126255       9.61247921       9.74548626       9.40865421       9.12090206       8.96516418       8.80396843       8.60939693       8.38407516       8.21712589       7.94035864       7.83516216       7.79078102       7.55101967       7.44995737       7.38956451       7.27954102       7.23404026       7.16420269       7.12133789       7.08329391       7.03089523       7.04394102       7.01298475       6.96728516       6.99655247       6.98149824       6.94704390       6.97266150       6.97170544       6.94601727       6.95961189       6.96938992       6.95396519       6.95593786       6.96687031       6.96114540       6.95828247       6.96298361       6.96464396       6.96426344       6.95923948       6.96227741       6.96998644       6.95974874       6.95691824       6.97413588       6.96676588       6.95197105       6.97859097       6.98382616       6.95722818       6.99137163       7.01240492       6.98290300       7.02751207       7.06525850       7.05247641       7.10366344       7.14838266       7.19325638       7.26197767       7.30995321       7.42469692       7.48612404       7.58503771       7.83156443       7.87419319       7.97115660       8.25953770       8.42715645       8.63689804       8.83204842       8.99941635       9.14390850       9.41956902       9.76439476       9.61738110       9.84966278       9.77261734       8.88226223       9.00276756       9.22556973       8.58301258       7.55493832       7.66963816       8.28701401       8.54852486       13.3115196       9.75690556       5.54470634       12.0810986       14.4662066       10.4749031       8.79994297       7.00835943       5.50688696       4.36917162       3.51678514       2.87563491       2.39193439       2.02739787       5.77150249       7.41948462       9.33702278       10.6023407       11.5610914       7.82384062       5.31429768       14.8379793       8.61019993       6.52575111       7.16484737       5.26276350       5.71194935       6.59267426       5.30749846       5.22016144       5.61562109       5.24551105       4.98745537       5.19962549       4.93893099       4.39918518       4.72210455       4.62847614       4.01565409       4.26961470       4.29384041       3.74326181       3.80668902       3.98672295       3.65210128       3.51290655       3.69476485       3.56903982       3.38209391       3.50838971       3.50350380       3.34051681       3.38381553       3.44745064       3.35542631       3.32550168       3.39519405       3.37605667       3.31345677       3.35752892       3.38880563       3.32462502       3.33426547       3.39014363       3.34310961       3.32484984       3.38427186       3.35888481       3.32321715       3.37611222       3.37052917       3.32407713       3.36699510       3.37953115       3.32540798       3.35573840       3.38721013       3.32938051       3.34119177       3.39240980       3.34102821       3.32524538       3.39069319       3.36596012       3.31817222       3.37847877       3.40428710       3.33563542       3.36031938       3.45629525       3.39922547       3.34998941       3.51223540       3.52806401       3.39782310       3.57799530       3.71556020       3.53545690       3.66405129       4.00580263       3.83194137       3.75735950       4.31110048       4.29547644       4.02946234       4.64199257       4.74305439       4.41120148       4.95180702       5.21307802       4.99124479       5.25320959       5.62101889       5.21617842       5.31399107       6.59546041       5.70423841       5.26637888       7.17626476       6.53154612       8.59658718       14.8428507       5.27045059       7.79999542       11.5359182       10.5797424       9.31458473       7.40023518       5.75549412       4.52322817       3.61461592       2.93974781       2.43494105       2.05665755       5.77150202       7.41948509       9.33702278       10.6023407       11.5610914       7.82384205       5.31429815       14.8379812       8.61019516       6.52574062       7.16485214       5.26275969       5.71195507       6.59267616       5.30749798       5.22016716       5.61561871       5.24550724       4.98745155       5.19963121       4.93892956       4.39919329       4.72210741       4.62847424       4.01565504       4.26961803       4.29384422       3.74326372       3.80668879       3.98672962       3.65210509       3.51290536       3.69476414       3.56904769       3.38209867       3.50839496       3.50351024       3.34051561       3.38381648       3.44744873       3.35543537       3.32550097       3.39519405       3.37606192       3.31345725       3.35753107       3.38880181       3.32462263       3.33426499       3.39014339       3.34310770       3.32484698       3.38427162       3.35888433       3.32321787       3.37611651       3.37052464       3.32408261       3.36699581       3.37953210       3.32540631       3.35573697       3.38721538       3.32937956       3.34118915       3.39240718       3.34102774       3.32524180       3.39069128       3.36595798       3.31817460       3.37847686       3.40428901       3.33563495       3.36031175       3.45629907       3.39922428       3.34999275       3.51224017       3.52806067       3.39782667       3.57799768       3.71556425       3.53544927       3.66404915       4.00580359       3.83193970       3.75736046       4.31109905       4.29547358       4.02945900       4.64198589       4.74304914       4.41119909       4.95180368       5.21307707       4.99124956       5.25320673       5.62101555       5.21617699       5.31398773       6.59545660       5.70423603       5.26637506       7.17626333       6.53154421       8.59659863       14.8428507       5.27044916       7.79999590       11.5359182       10.5797424       9.31458569       7.40023565       5.75549507       4.52322817       3.61461592       2.93974781       2.43494105       2.05665755       5.52267218       7.02729750       8.82213879       10.4983740       14.4989824       12.1146450       5.58128643       9.76121807       13.3042326       8.58557224       8.30441666       7.69010639       7.61768913       8.63389683       9.25912285       9.04310799       8.90755749       9.78876400       9.87126064       9.61247921       9.74549103       9.40865040       9.12089729       8.96516895       8.80396938       8.60940266       8.38406944       8.21712780       7.94036055       7.83515978       7.79077625       7.55101824       7.44995451       7.38956213       7.27953672       7.23403025       7.16419363       7.12133741       7.08328772       7.03089237       7.04393816       7.01297760       6.96728420       6.99654722       6.98149967       6.94704247       6.97266340       6.97170877       6.94601870       6.95961332       6.96938801       6.95396662       6.95593739       6.96687031       6.96114445       6.95827961       6.96297979       6.96464014       6.96426201       6.95923424       6.96227455       6.96998453       6.95974493       6.95691633       6.97413301       6.96676302       6.95197439       6.97859144       6.98382139       6.95722771       6.99137211       7.01239920       6.98290300       7.02751160       7.06526566       7.05247879       7.10367060       7.14838934       7.19326401       7.26198578       7.30995464       7.42470121       7.48612976       7.58503437       7.83156157       7.87419415       7.97115803       8.25954056       8.42715549       8.63689804       8.83204460       8.99941540       9.14391232       9.41956902       9.76439190       9.61738110       9.84966183       9.77261162       8.88225746       9.00276947       9.22556686       8.58301163       7.55494070       7.66963530       8.28701496       8.54852581       13.3115244       9.75690269       5.54470778       12.0811014       14.4662085       10.4749050       8.79994392       7.00835991       5.50688744       4.36917114       3.51678491       2.87563515       2.39193416       2.02739787       5.07446098       6.30770826       7.75728893       8.98418522       10.7098761       15.0613880       11.2325706       8.42636108       9.48754787       8.74863911       8.89495468       9.09527016       8.34743881       8.31214428       9.42097378       9.49525070       8.74642944       9.09133720       9.28842735       8.78013897       8.63018608       8.63116264       8.17831707       7.88566160       7.87026882       7.56774902       7.28540230       7.21018314       7.02745342       6.80636454       6.71042490       6.64054775       6.48891258       6.38140011       6.37318134       6.29363203       6.20313406       6.21364689       6.17716074       6.11147308       6.13086367       6.12071419       6.07263088       6.08996105       6.09627390       6.06295013       6.07392550       6.08852625       6.06610441       6.06915236       6.08643389       6.07449818       6.07055235       6.08399630       6.08193588       6.07517624       6.08009577       6.08515692       6.08130074       6.07595968       6.08272362       6.08681488       6.07386255       6.07671165       6.09080315       6.07549429       6.07085037       6.09495068       6.08389902       6.07151747       6.10566807       6.10427332       6.08632755       6.13438272       6.15039396       6.13130665       6.19601297       6.23901939       6.23023272       6.31835318       6.40363884       6.41511631       6.51951933       6.67500591       6.74871683       6.84034157       7.06134605       7.24918461       7.32038164       7.59567118       7.90172625       7.91424561       8.19619083       8.64905071       8.64423561       8.78104401       9.28102112       9.07932854       8.72642326       9.46511364       9.38780499       8.27144814       8.30319405       9.07051849       8.86847019       8.72212791       9.48150539       8.41823006       11.2124472       15.0229311       10.6831570       8.96161747       7.73627949       6.28966951       5.05920124       4.08902311       3.33634377       2.75598407       2.31094837       1.97191978       4.53258896       5.46861887       6.51404381       7.51213884       8.50271320       10.0358429       13.7060099       10.6473083       9.56056881       8.94326019       8.70446968       8.41290283       8.23051643       7.97223377       8.39710426       8.30121136       7.26994038       7.25637865       7.57114601       7.08389330       6.78745747       6.75782394       6.31988001       6.01954269       5.98265028       5.73806906       5.48182917       5.42106867       5.27344561       5.04812050       5.01006699       4.97903919       4.79978848       4.74050331       4.77979136       4.67890167       4.59498358       4.64784718       4.62307549       4.53635263       4.57517910       4.60034657       4.52338171       4.53611708       4.58866453       4.53648615       4.52332830       4.57825089       4.55383062       4.52464199       4.56909370       4.56912374       4.53290081       4.55986071       4.57820463       4.54342413       4.55107880       4.58108091       4.55402279       4.54234838       4.57772303       4.56412363       4.53439856       4.56870747       4.57431507       4.52940655       4.55449915       4.58441114       4.53209591       4.53977156       4.59602547       4.54923248       4.53112078       4.60979795       4.59288836       4.55040359       4.63537836       4.66942978       4.61698341       4.69580555       4.80402660       4.76969147       4.82211399       5.00435400       5.04397869       5.07602262       5.29731226       5.45424271       5.51371479       5.75786829       6.00694609       6.05013657       6.33534813       6.76913738       6.80728054       7.08872461       7.56495905       7.25934696       7.26647854       8.28553009       8.38026524       7.95113564       8.20923710       8.39990997       8.69141197       8.92579365       9.53289890       10.6188602       13.6783209       10.0130625       8.48097229       7.49148130       6.49506521       5.45192862       4.51809740       3.73571706       3.10084128       2.59604836       2.20091176       1.89566088       3.99871063       4.71213484       5.48940659       6.29409981       7.07088852       7.85110617       8.49323368       8.67682457       11.2899284       9.54546261       6.88225985       8.50656700       9.44692802